/*--------------------------------*- C++ -*----------------------------------*\
  =========                 |
  \\      /  F ield         | OpenFOAM: The Open Source CFD Toolbox
   \\    /   O peration     | Website:  https://openfoam.org
    \\  /    A nd           | Version:  8
     \\/     M anipulation  |
\*---------------------------------------------------------------------------*/
FoamFile
{
    version     2.0;
    format      ascii;
    class       surfaceScalarField;
    location    "0.750";
    object      ddtCorrDdt0(phi);
}
// * * * * * * * * * * * * * * * * * * * * * * * * * * * * * * * * * * * * * //

dimensions      [0 3 -2 0 0 0 0];

internalField   nonuniform List<scalar> 
23855
(
0.00126215
0.00479291
-0.00605506
-0.00815092
0.00971879
-0.00156787
-0.00855222
0.000758808
0.00779342
0.011461
-0.0165786
0.00511755
0.00366041
0.00292024
-0.00658065
-0.0066274
0.00563587
0.000991537
-0.00508428
-0.00280358
0.00788788
-0.0101431
-0.00606819
0.0162113
0.00550142
-0.00428408
-0.00121735
0.00632761
-0.0151716
0.00884397
-0.00465582
0.00248992
0.0021659
-0.00667053
-0.00542276
0.0120933
0.0119117
0.00349778
-0.0154095
0.0115761
-0.0202149
0.0086388
0.000670986
0.00214745
-0.00281843
-0.0107885
-0.00684872
0.0176373
-0.00835627
-0.00595524
0.0143115
0.000139319
0.0053621
-0.00349475
-0.00116108
-0.00559438
-0.00950105
0.0150954
0.00747092
-0.0134782
0.00600724
0.00180209
0.000436938
0.00661842
0.000832426
0.00579854
-0.00819937
0.00240083
-0.0149034
0.00582168
0.00908172
-0.00269171
-0.00252877
0.00522048
-0.0199912
0.00416543
0.0158257
-0.0055782
-0.00887147
0.0144497
-0.00184232
-0.00255881
0.00440113
0.0168241
-0.00491236
-0.0108463
-0.00405706
-3.19853e-05
-2.04656e-05
-0.0089418
0.0138731
-0.00493127
0.000176414
-0.00700332
0.0068269
-0.0163935
0.00975645
0.00663708
0.000300219
0.00549832
0.00221844
-0.00675526
0.00453682
0.00542648
-0.00622873
0.000802249
-0.00352285
-0.00366191
-0.0047331
0.00618885
-0.00145574
0.00383222
-0.00567454
-0.0110897
-0.00530386
6.33547e-05
-0.00540444
0.00534108
-0.00252694
-0.00364531
-0.00717318
0.0115923
-0.00441913
-0.00340655
0.00514764
-0.00174108
-0.00241503
0.00459831
-0.00218327
-0.00885152
0.0130898
-0.0042383
0.00184083
0.00236844
-0.00420926
-0.00433938
-0.00110316
0.00544254
-0.00419726
-0.00895873
0.013156
0.00673403
0.000690136
-0.00742416
0.00362212
0.00146448
0.00871165
-0.00680789
-0.00190376
-0.0111105
0.00464425
0.00646619
0.00572799
0.00222509
-0.00795309
0.0054052
-0.00480912
-0.000596087
0.00237426
-0.00135806
-0.00101621
0.00447337
-0.00943551
0.00496214
0.00809903
-0.0122963
0.000678322
0.00386269
-0.00454101
0.0111326
-0.00396933
-0.00716325
-0.000188104
0.00591609
-0.00714378
0.012311
-0.00516718
0.00437877
0.00328398
-0.00766271
0.00913651
-0.00467633
-0.00446018
-0.00870709
-0.00621
0.0149171
-0.00176058
-0.0048195
0.00658009
0.0074801
0.00354238
-0.0110225
0.0013182
-0.00943275
-0.00242549
0.0118582
-0.0104612
0.0149715
-0.0045103
0.00315111
0.000631214
-0.00378232
-0.00387136
-0.00256767
0.00643904
-0.000498234
0.00364934
-0.00486305
-0.0110182
0.0158812
0.00029649
-0.00262692
-0.0105592
9.80141e-05
9.79382e-05
0.000737114
-0.000835054
0.0029486
-0.000391198
-0.00255737
-0.006865
0.000533399
0.0063316
-0.0086707
0.0112167
-0.00254601
-0.000558883
0.00328476
-0.00272588
-0.000415744
-0.0028804
0.00329614
-0.00896775
0.000343741
0.00862402
0.0073883
-0.00749003
0.000101728
0.00131074
0.000234377
-0.00154512
-0.0089177
0.0115108
-0.00259305
-0.00591778
-0.00270367
0.00862145
0.0012994
-0.00260419
0.00130479
-0.00296323
0.00411112
-0.00114787
-0.0081643
-0.00126845
0.00240812
0.00636171
-0.00876985
0.00307169
0.00184281
-0.00491451
-0.000341267
0.000185183
0.000156085
0.0105072
0.00230366
-0.00686503
0.00456136
-0.00186695
0.000173914
0.00169303
-0.00290921
-0.00146893
0.00437813
-0.000947981
0.000606583
0.000341397
-0.00732538
-0.00201099
0.00933636
-0.00348571
0.00213067
0.00135506
-0.000361831
0.000292192
6.96376e-05
0.000600679
-0.000308489
-0.000292192
-0.00447244
0.00829586
-0.00382343
-0.00429326
0.00253267
-0.00170397
0.00657319
-0.00486922
-0.00162824
-0.000744284
0.00237251
0.0045069
-0.00158584
-0.00292107
0.00283314
-0.00215482
0.00154788
-0.00110394
-0.000443945
-0.000903646
0.00225867
-0.001355
0.00146218
-0.00358603
0.00212384
-0.00125048
0.000164503
0.00108598
-0.00413757
-0.00403817
0.00817573
-0.0005059
-6.96376e-05
0.000575536
-0.0102418
0.00531123
0.00493061
-0.00476737
0.0125829
-0.00781558
0.00373094
-0.00360462
-0.000126309
-0.000898413
0.00635559
-0.00545719
0.00611156
-0.000754559
-0.005357
-0.000217695
-0.000881735
0.00109943
0.00963659
-0.00377991
-0.00585669
0.00146012
0.000714448
-0.00217457
-0.00666629
0.00482208
0.00184422
-0.00171199
-0.000486874
0.00219886
0.0069713
-0.0061068
-0.000864504
-0.000679484
-0.00563105
0.00631053
-0.000599101
-0.000575536
0.00117464
-0.0143945
0.00761275
0.00678179
-0.00679954
0.0162257
-0.00942619
0.007294
-0.00976665
0.00247264
0.00487396
-0.00246228
-0.00241168
0.00223888
0.00443052
-0.00666941
0.00107514
-0.000793874
-0.000281264
0.0146151
-0.00612472
-0.0084904
0.00289018
-0.00117397
-0.00171621
-0.0125434
0.00696249
0.00558088
0.0142045
-0.00869583
-0.0055087
-0.00194331
-0.00156903
0.00351233
0.00371381
-0.00715177
0.00343796
-0.0161682
0.00786531
0.00830294
-0.000629836
-0.00117464
0.00180447
0.00477959
0.00234638
-0.00712597
-0.00972043
0.0183744
-0.00865396
0.00520591
-0.00101329
-0.00419262
0.00701623
-0.0125298
0.00551357
0.00199747
-0.000509492
-0.00148797
0.0191466
-0.00883093
-0.0103157
-0.0146471
0.00755972
0.00708739
0.00363625
-0.00268159
-0.000954656
0.0195729
-0.0102247
-0.00934826
0.00723185
-0.00782494
0.000593086
-0.00146854
-0.00289735
0.00436589
-0.0163348
0.00681809
0.00951674
-0.000614982
-0.00180447
0.00241945
0.00244263
-0.000244155
-0.00219847
0.00473021
0.000322723
-0.00505293
0.00556787
-0.0127363
0.00716838
0.00610203
0.000402228
-0.00650427
-0.0104625
0.0163341
-0.00587168
-0.015121
0.00669507
0.00842597
0.00369488
-0.00351036
-0.000184519
0.0191164
-0.0108694
-0.00824699
0.0193843
-0.00899641
-0.0103879
0.0104454
-0.0075738
-0.00287158
-0.000209706
-0.00398299
0.0041927
-0.000382902
-0.00241945
0.00280236
-0.0136741
0.00516263
0.00851152
0.00238299
4.33402e-05
-0.00242633
0.00363327
0.0013483
-0.00498157
-0.00769867
0.0107692
-0.00307052
0.0064176
-0.0018274
-0.00459021
0.00421094
-0.0125889
0.00837794
0.00318764
-0.00364588
0.000458246
0.0135704
-0.00862649
-0.00494388
-0.0146794
0.00565851
0.00902086
0.0129783
-0.00467768
-0.00830058
0.0117415
-0.00565419
-0.00608735
0.00123663
-0.00439035
0.00315372
-0.00894858
0.00280332
0.00614525
0.00019765
-0.00280236
0.00260471
0.00729347
-0.00460248
-0.00269099
0.0022638
0.00188621
-0.00415
-0.00432218
0.00586675
-0.00154459
0.00196808
0.000263763
-0.00223184
0.00256971
-0.0108728
0.00830309
-0.0113148
0.00366358
0.00765126
0.00229758
-0.00319726
0.000899681
0.0073927
-0.00482447
-0.00256824
0.00251789
-0.00390522
0.00138733
0.00570802
-0.000245872
-0.00546215
0.0101244
-0.00222667
-0.0078977
0.000751493
-0.00260471
0.00185322
-0.00511692
0.00161524
0.00350167
-0.00111055
0.00201985
-0.000909306
0.00778705
-0.00706149
-0.000725566
0.000701725
0.00723664
-0.00793837
0.000923231
0.00203479
-0.00295802
0.00133216
0.000425047
-0.0017572
0.00265514
-0.00109896
-0.00155619
-0.0077605
0.00198703
0.00577347
0.00131105
-0.00237499
0.00106394
0.000787614
0.0029372
-0.00372481
0.00652767
0.00158398
-0.00811164
0.00321843
-0.00259925
-0.000619179
-0.00138101
0.000493482
0.000887523
0.00121192
-0.00185322
0.0006413
0.00719685
-0.00841756
0.0012207
-0.0012524
-0.00462814
0.00588054
0.00152075
-0.000841317
-0.000679446
-0.000249496
0.00202115
-0.00177165
0.00069326
0.000478538
-0.00117179
-0.00399516
0.000631164
0.00336399
-0.000611446
0.00175188
-0.00114044
0.000340194
-0.00147705
0.00113687
-0.00308672
0.00506227
-0.00197556
0.00235763
0.00480217
-0.0071598
0.00306634
-0.000739098
-0.00232724
0.00135828
-0.0006413
-0.000716974
0.00217655
-0.000308779
-0.00186777
3.49262e-05
0.000474186
-0.000509107
-0.0033134
-0.00072478
0.00403817
0.00499932
-0.00675234
0.00175301
-0.0013403
0.00192979
-0.000589485
0.00506431
-0.00823583
0.00317152
-0.00431987
0.00486844
-0.000548572
-0.000544095
-0.00063033
0.00117443
-0.000578744
-0.000755222
0.00133397
-0.00554863
0.00708154
-0.00153291
-0.00161944
0.00721356
-0.00559411
0.00230352
0.00122515
-0.00352867
0.0102064
-0.00299565
-0.00721075
0.00110209
0.000716974
-0.00181906
0.00177673
-0.00703062
0.00525389
-0.00283793
0.00201686
0.000821076
0.00781916
-0.0130869
0.00526772
-0.00626017
0.00431178
0.00194839
-0.000665323
0.000479525
0.000185804
-0.00129946
0.00021891
0.00108056
0.00486342
-0.00258866
-0.00227476
-0.00957217
0.00696746
0.0026047
-0.00733946
0.00772004
-0.000380582
0.00104901
0.0028113
-0.00386031
-0.0045576
0.00830289
-0.00374529
0.0165308
-0.00644934
-0.0100815
0.000717367
0.00181906
-0.00253642
-0.00213232
-0.00530554
0.00743785
-0.00126636
0.000433117
0.00083325
0.00926741
-0.017429
0.00816161
-0.00443273
0.00197574
0.002457
-0.0094662
0.0121059
-0.00263967
-0.0145351
0.00844079
0.00609433
0.0136601
-0.00621134
-0.00744875
-0.00223577
0.00124786
0.000987922
-9.64543e-05
0.00365232
-0.00355586
-0.0108281
0.00717988
0.0036482
-0.00486981
0.00742045
-0.00255063
0.000207983
0.00253642
-0.0027444
0.0209128
-0.0102936
-0.0106191
-0.00182117
0.000362027
0.00145915
0.008386
-0.019584
0.011198
-0.00637053
-0.00249968
0.0088702
-0.00556634
0.00142176
0.00414459
-0.011644
-0.00799326
0.0196373
0.0203751
-0.00964907
-0.0107261
-0.0165476
0.00772252
0.00882507
-0.00322359
0.00237346
0.000850142
-0.0126846
0.00610142
0.00658316
-0.00367396
0.00581011
-0.00213614
-0.000841631
0.00375015
-0.00290851
0.0210138
-0.0128953
-0.00811853
-0.000194286
0.0027444
-0.00255011
0.00613693
-0.0175779
0.011441
-0.0107567
-0.0113835
0.0221402
-0.00230929
0.000235787
0.00207351
-0.00963277
0.0005892
0.00904357
-0.00577577
0.000378042
0.00539774
-0.0173349
0.0064417
0.0108932
0.0235144
-0.0127081
-0.0108063
-0.00379522
0.00333678
0.000458448
-0.0136317
0.00466484
0.00896688
-0.00118198
0.00335107
-0.00216908
-0.00425694
0.00475273
-0.000495791
-0.000442553
0.00255011
-0.00210755
0.014502
-0.0104335
-0.00406847
-0.0063425
-0.0108305
0.017173
-0.011722
0.00484127
0.00688077
-0.00253196
2.67743e-05
0.00250519
-0.00467506
-0.00114215
0.00581722
0.00292738
-0.0114652
0.00853785
0.018552
-0.0110943
-0.00745775
-0.00371482
0.00390611
-0.000191276
-0.0143683
0.00411817
0.0102502
-0.012686
0.0027725
0.00991348
-0.00644695
0.00319945
0.0032475
-0.0011387
0.00270389
-0.00156519
0.00795841
-0.00616933
-0.00178908
-0.000534816
0.00210755
-0.00157273
0.00129533
-0.00693259
0.00563725
-0.000935776
0.00885411
-0.00791833
-0.00231392
-0.000237727
0.00255165
-0.00253262
-0.00262831
0.00516094
-0.0112157
0.00846981
0.00274594
-0.00983318
0.0017615
0.00807167
-0.00276395
0.00381187
-0.00104791
0.0102378
-0.00642962
-0.00380818
-0.0102491
0.000764807
0.00948426
-0.00786023
0.00147839
0.00638185
-0.00110332
0.00208546
-0.000982134
-0.000520269
0.00157273
-0.00105246
0.00336106
-0.00223168
-0.00112939
-0.00150374
-0.000594068
0.00209782
-0.00828824
0.00980054
-0.00151229
0.000205308
-0.00362135
0.00341605
0.00308542
-0.00535884
0.00227343
0.000560577
-0.00287184
0.00231125
-0.00118355
0.00286238
-0.00167881
0.00402076
-0.00183321
-0.00218754
-0.00619782
0.000563798
0.00563402
-0.00116192
0.00148498
-0.000323055
-0.00782848
-0.000560743
0.00838922
-0.00707967
-0.00107782
0.00815748
-0.000502847
0.00105246
-0.000549608
-0.000112205
0.000923871
-0.000811659
-0.000419
-0.000789049
0.00120805
-0.000286565
0.000344672
-5.81192e-05
-0.00425059
0.00900273
-0.00475214
0.00509573
-0.00321278
-0.00188294
0.00288283
-0.00381022
0.000927389
-0.00202469
-0.000672597
0.00269727
0.000205515
0.00135596
-0.00156147
0.000758979
0.00127173
-0.0020307
-0.00117717
0.000842421
0.000334756
-0.00336123
-0.00294327
0.0063045
-0.00657556
-0.00259796
0.00917352
-0.000519367
0.000549608
-3.02393e-05
-0.00479571
0.00449977
0.000295948
0.00769479
-0.00588367
-0.00181112
0.00014286
0.00712175
-0.00726461
-0.00156737
0.00762519
-0.00605783
0.00491442
-0.00317076
-0.00174365
0.000822648
-0.000802454
-2.019e-05
-0.00368811
0.00485977
-0.00117165
0.00162549
-0.0018755
0.000249999
0.00253849
-0.000617014
-0.00192147
0.00170194
-0.00543104
0.0037291
-0.00427667
-0.00459734
0.00887401
-0.00149423
0.000251362
0.00124287
-0.0120475
0.00816254
0.00388499
-0.000586118
3.02393e-05
0.00055588
-0.00503107
0.015771
-0.0107399
0.00194166
-0.000656328
-0.00128533
0.0091175
-0.00779968
-0.00131781
0.00606958
-0.00185044
-0.00421913
0.00399332
0.00501328
-0.00900659
0.0110889
-0.00476251
-0.0063264
-0.00845849
0.00749759
0.000960913
0.00378778
-0.00241818
-0.0013696
-0.00186368
-0.000627465
0.00249115
0.00800034
-0.00859839
0.00059805
-0.000787135
-0.00647455
0.00726168
-0.000615408
-0.00055588
0.00117129
-0.0186764
0.0111085
0.00756799
0.00618112
0.00294332
-0.00912444
0.00265492
-0.000382905
-0.00227201
-0.00860345
0.0220663
-0.0134628
0.00881913
-0.0114009
0.00258177
0.00621091
-0.000292771
-0.00591813
0.0193434
-0.00820713
-0.0111363
-0.0149935
0.00976581
0.00522766
0.00426862
-0.00370717
-0.000561446
0.0173398
-0.0114332
-0.00590657
-0.00186471
-0.00185566
0.00372037
0.00368969
-0.00801913
0.00432943
-0.000635487
-0.00117129
0.00180678
-0.0206579
0.0108699
0.00978792
-0.01184
0.0230976
-0.0112577
0.00515613
0.00218028
-0.0073364
0.00527413
0.00096636
-0.00624049
0.00802025
0.00639571
-0.0144159
0.00283346
-7.5373e-05
-0.00275808
0.0253028
-0.0114148
-0.013888
0.00399994
-0.00418096
0.000181022
-0.0184379
0.0104347
0.00800322
0.0230347
-0.0116652
-0.0113694
0.00782466
-0.00853784
0.00071318
-0.00122206
-0.00310898
0.00433104
-0.000611387
-0.00180678
0.00241816
-0.0206675
0.00929442
0.0113731
0.00659168
-0.0152947
0.00870304
-0.0114268
0.0185355
-0.00710876
0.00257706
0.000174597
-0.00275166
0.00378499
0.00164594
-0.00543093
0.00496818
0.00110675
-0.00607492
0.0226845
-0.0116076
-0.0110769
0.0032146
-0.0039245
0.000709897
-0.0190823
0.00882002
0.0102623
-5.02816e-05
-0.00399861
0.0040489
0.0211946
-0.00817349
-0.0130212
0.0105439
-0.00763948
-0.00290444
-0.00033243
-0.00241816
0.0027506
-0.0139379
0.00532477
0.00861314
0.00744897
-0.00311327
-0.0043357
0.00239928
0.00172723
-0.00412652
0.00461384
0.0095673
-0.0141811
0.00204176
0.0003408
-0.00238256
-0.00668001
0.00983032
-0.00315032
-0.0166979
0.00644634
0.0102516
0.00227855
-0.00316338
0.000884824
0.0137888
-0.00736733
-0.00642145
0.0126363
-0.00202883
-0.0106074
0.0114892
-0.00533535
-0.00615382
0.00124172
-0.0042425
0.00300078
0.000193605
-0.0027506
0.00255699
-0.00758852
0.00230405
0.00528449
0.00149774
0.00041647
-0.00191421
0.00908347
-0.00685267
-0.0022308
0.00228119
-0.0111006
0.00881945
0.0012315
0.00177749
-0.003009
-0.00225135
0.0037566
-0.00150526
-0.0109172
0.00332751
0.00758969
0.00143615
-0.00239282
0.000956668
0.00540167
-0.00213795
-0.00326373
0.00238861
-0.00372452
0.00133592
0.0094995
-0.00162761
-0.0078719
0.0042893
0.00279598
-0.00708528
0.000723743
-0.00255699
0.00183325
-0.00253976
0.000954963
0.0015848
0.000957542
0.00042299
-0.00138053
0.000859655
-0.000267809
-0.00059185
0.00922302
-0.00903633
-0.000186675
0.000431863
0.0017356
-0.00216747
0.0072602
0.000249762
-0.00750995
0.000645603
0.00152131
-0.00216692
0.000615326
-0.00163242
0.00101709
-0.00623945
0.00142959
0.00480987
0.0060282
0.00213438
-0.00816258
-0.000426521
0.00508583
-0.00465932
0.00294318
-0.00246314
-0.000480042
0.000703148
0.000258351
-0.000961493
0.00112722
-0.00183325
0.000706034
-0.000312478
0.00171855
-0.00140608
0.00774542
-0.00956688
0.00182147
0.000363443
0.000432997
-0.000796443
0.00492614
-0.00509389
0.000167747
0.00142022
0.00583999
-0.00184315
0.000315812
0.00152735
-0.000103182
-0.000995219
0.0010984
-0.00433429
0.00456688
-0.000232602
0.00277055
-0.000789303
-0.00198125
0.00184369
0.00528415
-0.00712784
-0.00474277
0.00711231
-0.00236954
0.00126935
-0.000706034
-0.000563307
0.00705569
-0.000469956
-0.00658573
0.00764092
-0.0107429
0.00310197
-0.000301954
0.00045499
-0.00015304
-0.0023039
0.00230471
-8.18978e-07
0.00492686
-0.00884743
0.00392058
-0.00780867
0.00699274
0.000815922
-0.00527076
0.00337506
0.0018957
-0.000723332
-0.000417761
0.00114109
0.00143145
-0.000428191
-0.00100325
-0.00824972
0.00867122
-0.000421502
0.00206274
0.0010115
-0.00307423
-0.00192765
0.0074046
-0.00547694
0.000969749
0.000563307
-0.00153305
0.0151411
-0.00428103
-0.0108601
0.00136608
-0.00768652
0.00632045
-0.00494356
0.00300067
0.00194288
-0.000988047
0.000508588
0.000479455
0.00983921
-0.0175843
0.00774513
-0.00188695
0.000642595
0.00124435
0.0108668
-0.00276715
-0.0080996
-0.00278511
0.00645892
-0.0036738
-0.0129412
0.00890238
0.0040388
0.00092815
0.00244511
-0.00337326
-0.00965448
0.00851479
0.00113969
-0.00459537
0.00813438
-0.00353901
-0.00884217
0.0211668
-0.0123246
0.000629118
0.00153305
-0.00216216
0.0197022
-0.00704274
-0.0126595
-0.00689989
0.00287589
0.00402399
-0.0017238
0.000505166
0.00121863
-0.00399317
-0.00518783
0.00918101
-0.00364327
0.00218312
0.00146014
-0.0196
0.0091695
0.0104305
0.00117586
0.0106154
-0.0117912
-0.0114619
0.0070473
0.00441458
-0.00505053
0.00713542
-0.00208489
-0.000119622
0.00319945
-0.00307982
-0.0120898
0.0220194
-0.00992958
-0.0169146
0.00881085
0.00810378
0.00017381
0.00216216
-0.00233596
0.0244144
-0.0112704
-0.0131439
-0.00267877
0.000508231
0.00217053
-0.00769171
0.00190798
0.00578372
-0.00899098
-0.0021767
0.0111677
-0.0193625
0.0074212
0.0119413
-0.00505901
0.00371525
0.00134375
0.00853026
0.0128553
-0.0213856
-0.00447224
0.00546319
-0.000990949
-0.0136324
0.00549705
0.00813532
-0.0128575
0.0188287
-0.00597123
-0.000856517
0.0032853
-0.00242877
-0.0178517
0.00720819
0.0106435
0.0227871
-0.0133013
-0.00948583
-0.00020548
0.00233596
-0.00213047
-0.0135405
0.00298418
0.0105563
-0.0239713
0.0133392
0.0106321
-0.00705167
9.65174e-05
0.00695514
-0.00351429
0.000397246
0.00311703
-0.00562323
0.00497878
0.000644441
-0.0149975
0.00464873
0.0103488
-0.00121338
0.0028838
-0.00167041
-0.0134833
0.00326184
0.0102214
-0.00491288
0.0038798
0.00103308
-0.00879834
0.0113537
-0.00255534
-0.000455028
0.00213047
-0.00167543
-0.01659
0.00531961
0.0112704
0.0147696
-0.00994439
-0.00482519
-0.0136721
0.00879812
0.00487395
-0.0152693
0.00906701
0.00620226
-0.00504794
-0.00208841
0.00713633
-0.00376147
8.28681e-05
0.0036786
-0.00969824
0.00175633
0.00794192
-0.0050753
0.00554894
-0.000473641
-0.0112104
0.000783584
0.0104268
-0.00615977
0.00216184
0.00399793
-0.00121808
0.00222379
-0.0010057
-0.00504216
0.00664303
-0.00160088
-0.0121051
0.00235489
0.00975022
-0.000553385
0.00167543
-0.00112204
0.0075975
-0.00498997
-0.00260754
-0.00508923
0.0049412
0.000148038
-0.00320496
-0.000389132
0.00359408
-0.012432
0.0121658
0.000266212
-0.00193423
-0.00401351
0.00594773
-0.00346053
0.00510621
-0.00164569
-0.00621082
0.000682617
0.00552822
-0.00832434
-0.00140772
0.00973206
-0.0067748
0.000314495
0.0064603
-0.00113974
0.00299166
-0.00185194
-0.00114514
0.00154462
-0.000399475
0.00274062
-0.000974832
-0.0017658
-0.000538924
0.00112204
-0.000583098
-0.00862454
0.000423837
0.00820071
0.0014486
-0.00510744
0.00365883
-0.00042396
0.00343433
-0.00301036
-0.00750295
0.0114575
-0.00395459
-0.0019484
-0.000904458
0.00285285
-0.00241193
-0.000163424
0.00257537
-0.0010927
0.00361551
-0.00252282
6.09307e-05
0.00015361
-0.000214542
0.00186896
-9.01331e-05
-0.00177883
6.22826e-05
0.000319368
-0.000381654
-0.00102034
0.000892134
0.000128218
-0.00628612
-0.00175126
0.00803738
-0.00529665
-0.00353253
0.00882918
-0.0053648
-0.000921815
0.00628663
-1.70172e-05
0.00217047
-0.00215347
-0.000492659
0.000583098
-9.04247e-05
-0.000264393
0.000286894
-2.25029e-05
-0.00246681
0.00892472
-0.00645791
-0.000330026
-0.00116487
0.00149488
0.0037766
0.00260568
-0.00638228
0.00435258
-0.00494059
0.000587996
0.00101703
-0.00136772
0.000350716
0.00149193
0.00133556
-0.0028275
-0.000724878
-0.00612106
0.00684594
0.00624082
-0.00709948
0.00085864
-0.00455963
-0.00388202
0.00844166
-0.00100739
0.000336554
0.000670848
-0.000160311
0.000220129
-5.98207e-05
-0.00120765
-0.00264704
0.00385471
-0.00446199
0.00620725
-0.00174528
-0.000464772
9.04247e-05
0.000374362
0.00660666
0.00232849
-0.00893515
0.000164583
-0.000103653
0.00133262
-0.00110588
-0.000226751
0.00180494
0.00661575
-0.00842068
0.00622099
-0.00378213
-0.00243888
-5.5868e-06
0.000149252
-0.000143666
1.97248e-05
0.000139354
-0.00015908
0.0118084
-0.00483629
-0.00697204
0.00360503
-0.00110429
-0.00250075
-0.00122194
-0.000210204
0.00143216
-0.00184995
-0.00582747
0.00767743
-0.00945364
0.00341821
0.00603543
-2.70171e-05
-9.94563e-05
0.000126473
0.000198639
3.97254e-06
-0.000202614
0.0112344
-0.0180395
0.00680505
0.000146789
-0.000127065
-0.000460643
-0.000374362
0.000835022
0.00448557
-0.00566104
0.00117549
-0.00012019
0.000225326
-0.000105136
-0.0120931
0.00957626
0.00251677
0.00702674
-0.00197692
-0.00504983
6.66935e-06
7.36116e-05
-8.02821e-05
0.00531864
0.00415641
-0.00947504
0.0027275
-0.000822423
-0.00190509
0.00992346
0.00110416
-0.0110276
0.00488641
-0.00330554
-0.00158088
5.92275e-07
7.12251e-05
-7.18184e-05
-0.000115589
0.000151279
-3.56906e-05
0.0239805
-0.0103955
-0.0135849
0.0145247
-0.0265017
0.011977
0.000207924
-9.28566e-06
0.00168533
-0.00733794
0.00565261
-0.0123929
-0.00107888
0.0134718
-0.000104811
8.62683e-05
1.85412e-05
3.1447e-05
-3.62719e-05
4.8237e-06
-0.00129258
-0.000996959
0.00228956
-0.0213297
0.0128758
0.00845397
3.67054e-05
-3.00369e-05
-0.000435204
-0.000835022
0.00127024
0.0173676
-0.0106775
-0.00668999
0.00612554
0.00253182
-0.00865735
0.0158333
-0.00436493
-0.0114684
0.00348597
-0.000426264
-0.00305972
0.00664292
4.33481e-05
-0.00668628
0.0308727
-0.0149445
-0.0159282
-1.6649e-05
8.05616e-05
-6.39132e-05
9.05708e-06
2.71108e-05
-3.61689e-05
0.00528246
-0.00480424
-0.000478234
4.99842e-05
3.13365e-06
-5.31188e-05
0.0119569
-0.0272482
0.0152913
-0.00104129
-0.00193331
0.00297461
0.00563863
-0.00809372
0.00245509
-0.013416
-0.00791692
0.0213329
8.46286e-06
-8.46325e-06
-3.51158e-05
3.6034e-05
-9.18676e-07
-4.01528e-05
3.02402e-06
3.71277e-05
-0.0239339
0.0119492
0.0119847
-8.38972e-05
-1.48684e-05
9.87651e-05
-0.000260639
6.13282e-05
0.00019931
-0.000356249
-0.00127024
0.00162651
0.0285294
-0.0148178
-0.0137116
0.00536549
0.00156614
-0.00693164
0.00353795
1.6039e-05
-0.003554
9.79334e-06
-9.79384e-06
0.0177184
-0.00893482
-0.00878353
0.00606512
0.00134775
-0.00741287
5.96873e-06
-5.96968e-06
0.00476089
-0.00525781
0.000496909
1.43017e-06
9.79384e-06
-1.12248e-05
4.35987e-05
0.000164326
2.92606e-06
5.96968e-06
-8.89742e-06
0.0258551
-0.0142797
-0.0115753
0.000210453
-0.000186523
-2.39286e-05
-0.00992471
0.0226387
-0.0127139
0.00866776
-0.00747364
-0.00119411
-0.000365151
-0.00274072
0.00310588
0.0077683
-0.0198011
0.0120328
-6.4018e-06
6.40122e-06
8.38427e-06
-8.38484e-06
-0.000106564
-2.40812e-07
0.000106804
-3.99877e-05
2.96569e-06
3.70213e-05
-0.000233897
-0.00162651
0.00186042
-8.74317e-06
3.59478e-05
-2.72057e-05
-0.0230596
0.0089091
0.0141505
0.0302079
-0.0143887
-0.0158192
-0.00011735
0.000275916
-0.000158562
0.00373482
0.002287
-0.00602184
0.000136099
-0.000157
2.09021e-05
0.0175935
-0.0121103
-0.0054832
-0.000100279
-0.000192752
0.000293031
-0.00026603
0.000314218
-4.81854e-05
0.00856624
-0.00239309
-0.00617314
0.000237991
-0.000168528
-6.94605e-05
0.00305709
0.000353906
-0.00341101
0.00369167
-0.00481307
0.00112139
0.0135877
-0.00797963
-0.005608
-0.000242909
0.000142629
-0.00019209
-2.04216e-05
0.000212512
-0.00318488
0.0160971
-0.0129122
-5.73069e-06
0.000141829
0.00991681
-0.00545821
-0.00445859
0.00205562
-0.00921578
0.00716015
-0.000101074
-1.23657e-06
0.00010231
0.000666063
-0.00311211
0.00244607
5.04122e-05
-0.000435835
0.000385416
0.019555
-0.00801264
-0.0115423
-0.000187899
0.000207677
-1.97763e-05
-0.0140884
0.00360703
0.0104814
6.23323e-06
-0.00186042
0.00185421
0.00043413
-2.07597e-06
-0.000432053
0.00228962
0.000551484
-0.00284112
0.0102302
-0.00604112
-0.00418911
-2.481e-05
0.000155862
-0.000131053
0.00252145
0.00216325
-0.00468472
0.0136514
-0.0122743
-0.00137713
0.00390363
-0.00166124
-0.00224235
-2.78582e-05
3.02866e-05
-2.42928e-06
0.00252607
-0.00376285
0.00123677
-3.10868e-05
0.000179666
-0.000148578
6.03917e-06
-6.03958e-06
2.21135e-07
8.89742e-06
-9.11957e-06
3.55161e-06
-9.93506e-05
9.57983e-05
4.76685e-05
-4.41175e-05
0.00912682
-0.00236345
-0.00676337
-0.000123541
-8.04869e-06
0.000131589
-0.000140133
-3.33214e-06
0.000143465
-0.000146752
0.00012194
-0.000209257
-0.00259467
0.00280392
0.00156496
-0.00288586
0.00132091
8.64476e-05
-0.000105556
1.91087e-05
0.00254273
-0.0100426
0.00749986
-0.000202681
3.88519e-05
0.000163829
0.00726925
-0.000840599
-0.00642861
-7.50558e-07
8.46915e-06
-7.71938e-06
-0.00695089
0.000208541
0.00674233
0.00043979
-0.00185421
0.00141443
8.22067e-05
-0.000113293
0.0102679
-0.00851551
-0.00175237
0.00160436
0.000554257
-0.00215863
0.00176342
0.00182126
-0.0035847
0.00870856
-0.00931278
0.000604225
-0.000225774
0.000201168
2.46026e-05
-1.01186e-05
0.000168354
-0.000158235
-9.23632e-05
-0.000247096
0.00033946
0.0015996
-0.00277206
0.00117245
-0.000149837
-3.38975e-05
0.000183734
-0.000174959
0.0013714
-0.0011964
0.00203984
-0.00207861
3.87918e-05
7.30659e-05
-6.94746e-05
-3.59127e-06
-3.3802e-05
0.000351577
-0.000317779
0.00566592
-0.00693514
0.00126923
0.00659657
0.00125659
-0.00785316
8.21995e-06
-8.22013e-06
-0.000211385
5.10737e-05
-0.000863748
0.00135181
-0.00048807
-8.3893e-06
-4.10525e-06
1.24944e-05
0.000757699
-0.00141443
0.000656752
-3.89139e-05
3.02975e-06
3.5884e-05
-9.921e-05
-0.000199453
0.000298664
0.000410229
-0.000116929
-0.000293299
0.000288243
-0.000324218
3.59782e-05
0.000870949
0.00310016
-0.00397108
-1.135e-05
1.13495e-05
-0.00194017
-0.000905865
0.00284602
-3.5618e-05
3.84781e-05
-2.86024e-06
0.00506339
-0.0064407
0.00137732
2.3349e-05
2.9194e-05
-5.25423e-05
-4.10715e-05
6.72896e-07
4.03983e-05
0.000734961
0.00181314
-0.00254811
0.000986181
0.000524911
-0.00151111
0.00866346
-0.00948958
0.000826136
-2.85965e-05
9.93276e-05
-7.07296e-05
-0.000105707
0.000131465
-2.57579e-05
-8.51773e-05
-0.000181877
0.000267054
-3.14497e-05
2.72593e-05
4.19047e-06
0.000950796
-0.00214324
0.00119242
-0.00644393
0.00552909
0.000914879
0.000111788
-0.000121907
0.00303196
0.00463756
-0.00766951
0.00794215
-0.00389655
-0.00404558
-9.4261e-05
-2.6597e-07
9.4527e-05
-0.000259995
0.000310403
-2.06017e-06
1.96081e-05
-1.7545e-05
6.94807e-06
6.93463e-06
-1.38799e-05
0.00216036
-0.000891088
-0.00126926
0.000158695
8.51768e-06
-0.000167212
-0.000221113
-0.000140006
0.00036112
1.81194e-05
3.07887e-05
-4.89077e-05
-0.000318306
9.00322e-05
0.00022827
-0.000134914
0.00030886
-0.000173942
-0.00120491
0.00663181
-0.00542691
-7.79372e-05
-0.0001671
0.000245037
3.27308e-05
-0.000123893
9.11622e-05
-0.000178435
-3.29097e-06
0.000181725
-7.71146e-05
9.52325e-05
-0.000118103
0.000101841
1.62618e-05
-0.000237026
5.51848e-05
0.000181841
-3.52638e-05
9.9929e-07
3.4265e-05
0.000299702
-8.69537e-05
-0.000212747
-5.30014e-07
-7.63354e-06
8.16578e-06
-0.00433269
0.00570858
-0.00137586
0.000852296
-0.000656752
-0.000195528
4.19864e-05
0.000159037
-0.000201023
-0.000255844
0.00020683
4.90166e-05
-3.35708e-05
3.20055e-05
1.56683e-06
-0.000236623
0.00010171
0.00169298
-0.0010553
-0.000637698
-0.000203437
0.0001255
0.000318687
0.0005026
-0.000821308
0.00631837
-0.00929523
0.00297688
-7.23882e-05
-0.000183451
6.26406e-05
-7.79742e-05
1.53335e-05
3.95097e-06
4.19731e-05
-4.59236e-05
3.16674e-05
-0.000304836
0.000273162
0.00176591
-0.00316806
0.00140217
-0.000137824
0.000118971
1.88531e-05
3.67789e-05
-3.50939e-05
-1.68531e-06
6.61283e-06
1.10459e-05
-1.76577e-05
-4.46663e-07
4.46852e-07
0.000261947
-7.96052e-05
-0.000182342
3.13075e-05
-3.78937e-07
-3.09286e-05
-0.000105829
0.000308338
-0.00020251
-0.00255713
0.00291115
-0.000354039
-1.02666e-05
-3.74517e-08
1.03039e-05
1.14818e-05
-1.14818e-05
4.83887e-05
1.00146e-05
-5.84016e-05
-1.57841e-05
9.18577e-05
-7.607e-05
-5.38458e-06
-2.71753e-07
5.65743e-06
-1.11193e-05
1.07778e-05
3.41989e-07
-0.00980317
0.0080428
0.00176041
-4.46852e-07
-8.28173e-08
0.000156118
0.000330102
-0.00144925
0.00111913
-1.75637e-05
-4.09202e-05
5.84854e-05
0.0098419
-0.00110732
-0.00873457
4.21436e-07
-4.20763e-07
0.00173627
0.000504423
-0.00224068
0.000132553
0.00912825
-0.00926079
-0.000390004
0.000168892
-0.000120496
2.14983e-05
9.90027e-05
-0.000160954
0.000150646
1.03129e-05
-0.00111251
0.00746885
-0.00635633
1.21565e-06
-1.21466e-06
1.42241e-05
-4.4477e-07
-1.37779e-05
-3.05351e-06
1.62852e-05
-1.32304e-05
0.000111892
-1.27472e-05
-9.91451e-05
-6.70093e-05
8.76429e-05
-2.06337e-05
4.20763e-07
-1.30481e-06
8.84776e-07
-2.84143e-05
3.29298e-05
-4.51375e-06
0.000764834
0.000195528
-0.000960346
0.00529436
-0.000124955
-0.00516942
-1.98414e-05
-0.000125345
0.00014519
-0.00895768
0.00812048
0.000837233
1.37243e-06
1.21466e-06
-2.58477e-06
0.00373928
-0.00855132
0.00481206
-0.000768532
-0.000639535
0.00140809
-0.00605118
0.00413369
0.00191747
-1.14276e-06
1.1432e-06
-0.000102923
3.279e-05
7.013e-05
-0.000297818
0.000568893
-0.0002711
-0.00125372
-0.01294
0.0141938
-1.70546e-05
1.47203e-05
2.33727e-06
-2.24683e-06
-7.26999e-07
2.97625e-06
-5.96492e-05
6.55232e-06
5.30967e-05
-3.92624e-06
9.94436e-05
-9.55149e-05
1.79981e-07
1.30481e-06
-1.48512e-06
-0.0120069
0.0101582
0.00184868
7.15955e-05
-0.000129709
5.81169e-05
-5.87197e-05
4.72221e-06
5.39972e-05
-0.0014619
-7.91852e-06
0.0014698
6.8547e-07
8.28173e-08
-7.66751e-07
-2.20367e-05
-1.10264e-05
3.30664e-05
6.97157e-05
-9.52311e-05
2.5511e-05
-7.40465e-05
-1.30038e-05
8.70475e-05
4.35267e-05
0.000177708
-0.000221229
-0.000127979
0.000128055
-8.16231e-08
-7.22426e-06
7.53969e-06
-3.14434e-07
-8.52212e-06
8.70231e-06
1.85437e-05
-8.59457e-06
-9.94595e-06
0.0107538
-0.0103629
-0.000390838
0.000907482
0.00173031
-0.00263778
1.49087e-06
-6.16292e-05
-5.41039e-05
0.000115737
9.76326e-05
-6.07338e-05
-3.68972e-05
-0.00474301
0.00882858
-0.00408555
2.09919e-06
-1.49325e-05