/*--------------------------------*- C++ -*----------------------------------*\
  =========                 |
  \\      /  F ield         | OpenFOAM: The Open Source CFD Toolbox
   \\    /   O peration     | Website:  https://openfoam.org
    \\  /    A nd           | Version:  8
     \\/     M anipulation  |
\*---------------------------------------------------------------------------*/
FoamFile
{
    version     2.0;
    format      ascii;
    class       volScalarField;
    location    "0.750";
    object      p;
}
// * * * * * * * * * * * * * * * * * * * * * * * * * * * * * * * * * * * * * //

dimensions      [0 2 -2 0 0 0 0];

internalField   nonuniform List<scalar> 
16200
(
-0.176346
-0.3432
-0.393015
-0.622261
-0.11189
-0.34748
-0.472992
-0.652386
-0.352514
-0.741557
-0.169515
-0.496456
-0.660721
-0.7755
-0.169103
-0.606098
-0.408831
-0.285347
-0.0860056
-0.265509
0.0579841
-0.0394888
-0.0199256
0.0116355
-0.0338007
-0.153777
-0.330507
-0.125518
0.116691
-0.556994
-0.11764
-0.0383249
-0.101599
0.111187
-0.29018
0.0293437
0.0472939
0.0371189
0.0101788
0.0854535
0.147863
-0.390187
0.0266516
0.00828928
0.132747
0.108571
0.0195267
0.0819909
0.0930189
-0.0697377
-0.0063165
-0.026439
0.0114088
-0.262885
-0.188905
-0.00961935
-0.0984863
0.102387
-0.305489
-0.060579
-0.119337
-0.396171
-0.0257564
-0.40404
-0.475511
-0.289778
-0.546211
-0.190368
-0.608907
0.00860739
-0.487724
-0.684527
-0.000625339
-0.102847
-0.00581145
-0.651229
0.00952002
-0.589254
0.0172669
-0.399388
-0.073535
0.124756
0.135956
-0.0594309
0.136685
-0.546918
0.0689365
0.0571918
0.150497
0.132118
-0.351884
-0.394192
-0.111696
-0.352552
-0.34607
-0.0506692
-0.226581
-0.293044
-0.192836
0.11035
0.09912
-0.308106
0.100522
0.0831299
-0.27509
-0.175703
-0.401175
-0.0908979
-0.202606
-0.120984
-0.39076
-0.293575
-0.354915
0.111738
0.0232334
0.107366
-0.283941
-0.471993
-0.164129
-0.149035
-0.0831687
-0.108313
-0.520399
-0.127302
-0.216821
0.101887
-0.547189
-0.0905677
0.101453
-0.271877
-0.532105
0.00208661
-0.123326
-0.0361451
-0.104173
-0.637411
-0.109396
-0.164344
-0.735663
0.0729898
-0.232409
-0.261497
0.0801944
0.0511669
-0.551106
-0.0659502
0.0524794
-0.079092
-0.714474
-0.130288
-0.0729348
-0.854626
-0.372051
0.0219953
-0.250544
0.0424094
-0.0429298
-0.00667811
0.0728247
0.107034
-0.519046
-0.114339
-0.0270568
-0.708208
-0.845732
-0.478302
-0.0476569
-0.0122245
-0.241083
-0.00171392
0.0443271
-0.453296
0.133635
0.0720598
0.0189378
-0.616606
-0.110871
-0.707648
-0.514628
-0.124274
-0.249748
-0.0780198
0.140313
0.0820745
-0.38563
0.0369752
0.041922
-0.127741
0.0582598
-0.491498
-0.192847
-0.516899
-0.468224
-0.145041
-0.274549
-0.343218
0.131868
-0.0253994
0.106801
0.0680246
-0.380014
-0.17448
0.0873622
-0.33319
-0.354889
-0.233328
-0.332381
-0.196577
0.0986276
-0.134031
-0.320013
0.118798
0.0895025
-0.249571
-0.292997
0.1047
-0.18696
-0.214772
-0.234628
-0.215981
-0.418349
0.100682
-0.283971
-0.339622
0.118229
0.0311015
-0.249676
0.110227
-0.36817
-0.0853283
-0.0829185
-0.197885
-0.544079
-0.199392
-0.0716331
0.103855
-0.374679
-0.477551
0.100907
0.104474
-0.524521
-0.231239
-0.0254393
-0.133461
0.0209299
-0.662405
-0.153312
-0.20297
0.0903416
-0.398126
0.0760973
-0.686179
-0.228304
-0.708916
0.0864251
-0.0562324
0.011141
0.0909381
-0.0879693
-0.733973
0.068812
-0.397623
-0.345143
0.0354089
-0.850626
-0.854415
-0.220886
0.055937
0.0345189
0.133662
0.0162871
-0.714944
-0.0191308
-0.368723
-0.894456
0.0364503
-0.463854
-0.0179075
-0.205994
-0.895677
0.0150172
0.0506371
0.0760398
0.164546
0.0431634
-0.615776
-0.790581
-0.521047
-0.00391479
-0.0775335
-0.335027
-0.803705
-0.0326688
-0.193166
0.0486714
0.183449
0.12021
-0.494999
0.0936373
-0.319882
-0.595999
-0.0462133
-0.132127
-0.496208
-0.20308
-0.0781933
-0.633095
0.0150579
0.191562
0.152121
0.131546
-0.406027
-0.0824947
-0.397458
-0.166853
-0.388644
-0.340664
-0.113405
-0.469752
-0.240774
0.173599
0.184568
-0.0612847
0.158227
-0.346382
-0.103575
-0.405301
-0.258193
-0.220403
-0.170544
-0.332432
-0.341653
-0.128102
0.184011
-0.187994
0.150297
0.174757
-0.345425
-0.0990045
-0.117376
-0.519561
-0.140154
-0.104769
-0.269927
-0.473031
-0.117266
-0.370866
0.080498
0.185978
-0.380105
0.180546
-0.66425
-0.0831997
-0.0250619
-0.0821028
0.000607593
-0.670982
-0.240906
-0.0816513
0.174209
-0.593717
-0.0271673
0.173426
-0.428153
0.0820613
-0.0435971
-0.786918
0.00851873
-0.0133538
-0.866921
-0.24086
-0.0307908
-0.818343
0.142959
-0.163855
0.152103
-0.451318
-0.818627
0.128849
0.0498147
0.0241442
0.00416159
-0.986696
0.02397
-0.250594
-0.947113
-0.297961
0.0913194
0.114412
-0.444048
0.0290226
-0.746644
0.0519732
0.098674
0.153192
-0.950343
0.0738182
-0.250274
0.0240712
-0.912754
-0.396103
0.0602113
-0.409106
0.161627
0.134504
0.0177108
0.0932906
-0.601932
-0.245456
0.113905
-0.779973
-0.73115
-0.426094
-0.0486192
-0.00475552
-0.374638
0.125551
0.162694
-0.0217216
0.159348
-0.468719
-0.253087
0.143444
-0.574305
-0.113207
-0.380441
-0.496319
-0.0679134
-0.36459
0.148659
-0.358604
0.144409
0.174529
-0.100262
-0.394864
0.16235
-0.278204
-0.273203
-0.287821
-0.151662
-0.379365
-0.117211
0.180309
0.095311
0.162573
-0.299443
-0.128351
-0.339948
0.172185
-0.261013
-0.155279
-0.140729
-0.122838
-0.137687
-0.436202
-0.27429
0.167552
0.173606
0.00586056
-0.17845
-0.277161
0.172926
-0.437387
-0.0077004
-0.124951
-0.0199248
-0.125177
-0.514629
-0.127303
0.15415
0.16257
-0.265413
0.162107
-0.580684
-0.48247
-0.132421
-0.0694302
0.0600125
0.0738608
-0.582122
-0.0863724
-0.723179
0.118795
0.146427
-0.296198
0.136439
-0.250698
-0.725305
0.0967552
0.136265
-0.00239173
-0.587896
-0.101161
-0.0305903
-0.809222
0.115941
0.0621984
-0.479012
-0.233319
0.0951149
-0.933174
0.172142
0.118179
-0.544235
0.0603321
-0.0820543
-0.78143
0.028536
-0.614926
-0.959183
-0.0144066
0.0707822
0.0387781
-0.22236
0.110907
0.121489
0.191287
-0.470587
0.0816532
-0.0735758
-0.659781
-0.776517
-0.650123
-0.10057
0.0152248
-0.239649
-0.0270874
0.095934
0.199556
0.146118
-0.416653
-0.0936401
0.123185
-0.527244
-0.570999
-0.0429967
-0.570248
-0.176465
-0.0922639
-0.292969
0.0318707
0.194393
-0.415611
0.168119
-0.437906
0.151842
-0.152264
-0.219521
-0.404453
-0.41655
-0.0924771
-0.406081
-0.141032
0.579646
-0.453121
0.651318
0.178244
0.172159
-0.0782882
-0.258901
-0.385054
0.168503
0.775307
-0.243031
-0.12058
-0.288137
-0.214189
-0.584161
-0.156418
-0.241111
-0.572813
0.125445
0.178556
0.524037
-0.43367
-0.399325
0.174252
-0.229723
0.580957
-0.118289
-0.0893359
-0.161739
0.503766
0.664363
-0.843217
-0.134677
0.170057
0.0518888
-0.448136
0.590629
0.843438
-0.723703
0.646234
0.168736
-0.680029
0.773556
-0.463458
-0.0769142
0.654035
0.0271544
-0.0835021
-0.211909
-0.0795446
0.593533
0.721273
-1.11052
-0.841075
0.872438
-0.0445897
-0.670202
0.687997
0.690031
0.148561
-0.538388
0.622197
0.151832
-0.984754
0.100602
-0.221536
-0.027445
0.0158661
-1.25364
0.543072
0.597547
-0.00721178
0.769901
-0.851877
0.112285
-0.149028
-0.837349
0.858195
0.813243
0.879429
-0.563666
0.81635
0.920331
0.123692
-1.22935
0.097232
0.0373809
0.800776
-0.22635
0.143705
0.683796
0.0661936
0.715064
0.916403
0.599453
-1.16721
-1.37113
-0.863806
-0.233405
0.0633012
-0.749883
0.680908
0.918929
0.898773
0.940022
0.0852282
0.564862
-0.544953
-1.26503
-1.19051
0.156769
0.916905
-0.221432
1.01904
-1.25485
0.167003
-1.62064
0.099369
0.128794
-0.911043
0.994868
-1.35157
-0.740823
0.940382
-0.274368
-0.605954
0.951211
0.00996639
-2.0936
-1.0601
-1.57022
-0.476048
0.0397589
-2.05359
0.149908
0.180761
-1.77611
0.197556
-0.212528
-0.640448
0.522774
0.175495
-1.76609
0.532611
0.574864
0.45575
0.452755
-0.257303
0.996081
1.02696
-1.87202
-0.484832
-0.0381001
-1.93682
-0.528026
1.06848
-0.758369
0.493121
-0.411022
-0.00651815
-1.82985
0.175862
0.187269
0.223325
-0.223424
-2.09597
-1.65682
0.958399
0.207637
-1.86924
-0.427174
-0.0701626
-2.16933
-2.0775
-0.313525
-0.190752
0.976318
0.454586
-0.398089
1.04182
-0.0437886
0.996346
1.02747
-2.07342
-2.06622
-0.487366
0.951236
-0.383521
1.01971
-0.266272
-1.94118
1.07834
0.238109
0.212055
0.141568
-2.13068
-2.05014
1.08935
-2.01867
0.227773
-0.28052
-1.74046
-0.0963509
-0.128376
1.00372
-2.11306
-0.169145
-2.13304
-0.0778623
1.20959
1.03841
-2.14605
-2.13114
-1.71541
-0.370382
1.14853
1.07484
-0.248045
-2.11953
1.1522
1.13047
-0.191834
-0.220453
-2.22577
-0.279494
-0.0622594
1.16944
-0.332173
-2.22111
-1.82337
-0.399101
1.13079
0.225339
0.0695352
-0.308322
1.07955
-2.07563
-2.12929
-0.367709
-2.10789
1.10911
-1.93249
-2.30446
1.15264
1.15831
1.20947
0.238006
1.18605
1.11701
-1.76226
-2.09094
-2.25621
-2.0017
-0.194377
-2.1835
1.19566
0.236891
-0.154852
0.00785959
-2.18598
-0.0611025
-0.394201
1.02119
-2.085
-2.07336
-0.00326128
-2.02638
-2.0989
-1.88061
-1.63991
1.13298
-2.06084
-2.29459
-0.0579723
-0.470781
-0.168458
-0.139652
-1.89376
-0.045673
-0.519186
0.22747
-1.99162
-2.12129
0.227726
-0.449661
-1.75843
-1.79577
1.19918
-2.08064
-2.01359
-0.151941
-0.165012
1.15153
0.2312
-2.17539
-0.230771
-0.216588
-2.13083
-2.06279
-2.13777
-2.25748
-2.03343
-1.71605
0.0901852
-0.0239255
-1.75222
0.101903
-0.140399
0.0704919
-1.83419
-1.36398
-1.69136
-0.0333629
-0.0557356
-0.255259
-1.83781
1.13017
0.0710892
-0.755751
-0.523417
0.199998
-0.209122
-1.70172
-0.18605
0.217157
1.211
-2.14177
1.16686
0.209242
-0.146096
-0.138126
1.19502
-0.160323
-2.15755
-2.06366
-2.14137
-0.175472
-2.15291
1.2478
0.0712648
1.28395
0.0225422
-1.47964
0.120881
0.42056
0.508834
-0.354191
-0.336076
1.24167
-0.297687
0.00370388
0.048744
-0.0163785
-0.146659
0.509876
-2.14618
-2.07086
-0.309578
-0.160955
1.26382
0.404838
1.31593
-0.131536
0.188467
0.4663
0.143538
-0.212051
-1.02711
-0.531514
0.118876
-0.301822
-0.4215
1.31509
0.169474
0.508938
1.23246
0.137772
1.24587
0.0461898
-2.16165
1.26947
1.29866
0.067872
-1.52023
0.00652394
-1.31108
-1.55234
-2.14653
-0.258748
0.511493
-2.17689
0.147216
1.29495
-1.48301
0.0714043
0.0448346
0.512045
-1.4314
-2.19398
-1.15862
-0.133117
-0.131374
0.0297355
0.049096
0.0252214
0.515306
0.516349
-2.37148
-2.17767
-0.42508
-0.246075
-2.16824
0.51377
0.0551235
1.25547
-0.664717
-1.20771
0.131769
-2.05574
0.0316402
-2.32036
0.13851
-2.37849
-1.60427
-0.617486
-2.32467
0.523786
0.108245
0.150513
-2.31153
-2.28164
-0.147339
0.510286
-2.58003
0.103158
-2.08712
0.15605
-2.19826
0.0298781
0.0139207
-0.340267
-2.17265
1.22183
-2.54598
-2.22576
0.0824174
-0.124413
-2.1472
-2.19888
0.367583
0.516282
-0.136553
-2.31105
-0.353112
-2.1655
-0.859683
-0.056689
-1.14601
0.139171
-0.311162
-0.330261
0.071128
0.419301
0.353726
0.526009
0.324479
-2.34259
0.0276918
0.154504
-2.11181
0.24564
0.499634
-2.20927
-0.134262
-0.12731
1.28604
0.0296998
-2.46549
0.514369
0.059529
-2.20255
1.36947
-0.00599182
0.336058
0.51549
0.163354
0.321026
-1.74261
0.127666
-2.16799
0.312635
0.0406713
0.0289465
-0.155184
-2.42974
1.34047
0.269199
-2.45554
-0.119855
-2.45944
-0.120745
-1.95698
0.111831
0.130604
-0.311223
-2.33189
0.141917
-0.914107
0.129629
-0.343492
-0.00666967
-0.174573
0.235366
-2.40009
-2.26634
-2.27631
-0.47643
-2.54239
0.178485
0.156268
0.149245
-0.117708
-2.50692
-0.404869
-2.517
-0.0666688
0.385254
-2.22623
0.114873
0.0262329
-0.908557
0.159972
-0.0563297
-2.19362
0.363107
-2.0261
-0.457213
-2.54555
-0.290344
-2.07623
0.285996
-2.46114
0.283825
0.0449076
0.533267
0.0892321
-2.388
-0.203768
0.525748
-0.308163
0.624694
0.308495
-2.51466
0.38932
0.23064
-2.03771
0.638856
-2.06221
0.504504
0.145903
-0.39316
-2.47042
-1.80619
-2.56274
0.0832374
-0.0857599
-0.653342
-0.437243
-2.49542
0.533551
0.272404
0.533944
-0.273505
-2.02758
0.305254
1.27748
0.53882
0.135814
0.171468
1.29243
-0.406324
-0.417467
0.399559
-0.154957
-1.47973
-2.01663
0.128683
-0.545274
0.142216
-2.1322
0.634171
-0.499917
0.228355
-0.124521
-0.424373
0.546681
0.54239
0.296926
-0.145139
-2.0876
0.143627
-2.03638
-2.47769
-0.286014
-0.442903
-0.143123
-2.5895
0.0237879
-1.63771
-0.484429
0.120778
1.39055
-2.03706
-0.785234
-0.435578
-2.45814
-2.43767
0.115614
-2.6325
-0.120233
0.557326
-0.188669
1.29564
-0.4886
-0.322733
0.245439
-0.148984
0.156059
-0.462105
0.555583
0.558048
-2.59481
0.169969
0.23067
-2.1172
-0.635477
0.333944
0.175843
-2.08069
-2.19681
-0.221886
0.608464
-0.214857
0.599345
0.262157
0.579095
-2.64245
-2.37038
-0.00130066
0.203924
0.132782
-0.115836
-2.08945
-2.51427
0.135293
0.100131
0.0247222
1.40321
-2.14302
0.570613
0.56528
0.266339
-2.40376
0.110966
-0.179877
0.136787
-1.91922
-2.44308
-0.468374
-2.17842
0.0855562
-1.94456
0.024166
-0.167105
-0.42108
-2.47111
-2.54484
0.0686413
0.535608
0.166083
1.26668
1.40267
0.517033
-0.63044
-0.542553
-0.559866
-0.293136
-1.95504
0.0191642
-2.09803
-0.180713
-2.645
-0.309868
0.245165
-0.12894
-1.59443
0.19843
-2.14343
0.572229
-2.09238
-0.27828
1.32729
-0.260172
-2.50457
-2.16677
-0.498254
-0.310508
0.233519
0.0040039
1.33482
0.137703
-0.27831
-0.0526025
0.574496
-2.10794
0.0657713
-0.23007
0.144817
0.50237
-2.60588
0.586561
-1.74949
-0.0246603
1.28303
0.207854
-0.24883
-0.00895642
-2.15877
0.222441
-0.307026
-2.10561
-2.08658
-2.37015
-0.10938
1.3845
0.322477
-2.13563
-0.432897
-2.24082
-0.510193
-0.533045
-0.132586
0.116042
0.271844
-2.6041
0.232193
-0.609366
-0.11405
0.123746
-2.15533
-0.406192
0.0158661
-0.288581
-0.113721
-0.307048
0.249469
1.27756
-0.0040167
0.560026
0.516464
-2.60278
0.0661152
0.22101
0.316347
-2.62476
-2.62893
0.722231
1.35677
0.13316
-0.301213
-0.799948
0.587979
-2.6567
0.066281
-0.320742
-1.85938
-2.06416
0.212649
-0.170825
-0.275221
-0.0815487
-0.469058
-0.0711668
-1.40954
1.37637
0.305007
0.076509
-0.234774
-0.527214
-0.207629
-0.480693
0.689323
-2.11426
1.31533
0.0378949
0.132776
-0.597184
-2.69902
-0.310517
0.0552344
0.0978118
-0.274236
0.0318245
-2.16925
-0.300004
-0.687359
-2.56895
-2.14523
-0.782627
0.502773
0.65586
-2.12692
-0.194398
-0.423317
-2.66127
0.546542
-0.271806
1.43313
-0.552265
-0.848142
0.522134
-2.59317
-0.310184
-0.321704
0.286063
0.716595
-2.07933
-0.0104157
1.46379
-1.0226
-0.252756
-1.2212
-2.25417
1.17103
-0.328624
-0.115474
-0.557997
0.18285
1.42074
-0.281687
1.47195
-0.0353585
0.500802
-0.971998
-0.867462
-0.184668
-0.363904
-0.138638
0.48963
-0.700761
-0.278376
0.103084
-0.179973
1.44745
0.0550559
0.658746
-1.39078
-0.873182
-0.396488
1.44394
-1.31173
0.239326
1.30197
0.448422
0.507122
-2.61467
-0.00914689
-0.958747
0.256857
-1.51485
-0.119867
-2.13405
-1.8092
0.0999113
-2.69351
-0.304429
-0.642517
-0.108581
-2.05366
-0.120992
-0.289335
-2.61277
-0.157758
0.413343
-2.60574
-1.66838
-0.546227
-0.116366
-0.00902567
-1.54599
-2.04699
-2.68746
-1.02787
-0.11704
-2.05274
-1.89773
-0.115885
0.656069
-0.119213
-1.11249
-2.71175
-2.60007
0.663094
-1.38467
-0.11195
0.40775
-0.755256
1.33619
-0.468194
0.0117443
-0.120425
-1.46364
-2.71084
-0.0264773
-0.0550286
0.60363
-2.64528
-0.287588
1.39027
-0.189199
0.504294
-2.06796
-0.078589
0.0384877
-1.44181
-2.56179
1.41175
0.00364627
-0.571821
-1.52263
-0.181781
0.342338
0.0728261
0.711108
-1.04739
-1.63984
-2.06275
-1.40871
-2.04509
-1.15743
-1.14987
-0.0079789
-0.00567364
-0.113505
-2.18003
0.46672
-0.123072
0.0671531
-2.07289
-0.141056
-0.906316
-0.392641
1.45868
-0.69826
0.657008
-0.701999
-1.0868
-1.57534
0.207418
-0.321056
0.073396
0.0658961
0.137453
0.487765
-2.06151
-1.08701
-1.69406
-0.991433
-1.05016
-0.251494
-0.780924
0.254262
-2.65321
-0.859085
-0.566954
0.0481405
-0.179999
-1.35887
-0.0562344
-1.16627
-0.133597
-0.0174813
-0.0458346
0.43357
-1.44178
-0.137195
0.00544469
-0.227536
-0.128571
0.739952
0.381527
-2.47395
-0.861823
-0.0328054
-1.9787
-1.97742
0.485344
0.433714
0.156633
0.249503
0.353111
-1.10798
-1.80133
-2.6643
0.0427532
-0.210317
-0.0121667
0.292237
-1.53278
-1.60101
-0.100366
0.842139
-0.0541267
1.46805
-2.0512
-1.67091
-0.1614
0.982937
-0.976168
0.633478
-0.12136
-1.17613
-1.38228
-2.30843
0.932727
-0.0185541
0.416828
0.879925
1.46928
-0.245307
-0.0693359
0.750337
0.141579
0.907787
0.0108598
0.842873
-0.11211
-1.38918
-1.99332
-1.9024
-0.865533
-0.217693
-0.327128
1.30147
-1.36677
-2.20717
-1.2605
0.0040323
-0.0659637
-0.85039
-0.140204
-0.109823
0.249366
0.483509
1.35038
0.367834
-0.859593
-1.65087
-1.97483
0.458233
-0.865902
-0.408799
-0.773524
-2.70996
0.0645978
-0.653034
0.0256638
-0.46487
-1.86957
0.0240128
-0.209809
0.18815
-0.334165
-2.37392
-1.05016
-1.44396
-2.05006
-2.54248
0.638938
0.0339955
-0.137671
0.494209
-0.531338
-1.71624
-0.130257
0.566541
-0.00621527
-0.401101
0.637457
-0.902322
0.299908
-1.96655
-0.932971
0.637006
-1.33558
-1.33438
-1.68519
-1.17111
-2.09159
-1.72643
-0.124241
-2.39259
-0.23605
-1.80313
-1.19919
-1.36521
-0.886385
-0.853805
0.703231
-1.79523
0.82758
-0.889379
-1.3126
0.114268
-1.5548
-1.67724
-2.66308
-0.161996
-0.301222
0.133845
-1.18446
-0.123913
1.40396
0.0378083
0.584345
-0.56813
-2.02333
-0.236458
-1.76407
0.655576
-0.122559
-1.29207
1.0684
0.720745
-0.56063
-1.54519
-0.0549041
0.488653
-0.12798
-0.28716
-0.308251
-0.125015
-0.856446
-0.170041
-2.41778
0.502899
0.791419
0.022022
-1.87856
0.547745
0.740176
0.988223
-1.31653
0.0768216
0.621076
0.0464391
0.142815
-0.354882
-0.31597
-1.4187
-0.107249
-0.175562
0.152233
-2.71438
0.151303
1.09729
-2.71247
-2.11644
-0.325396
-0.00285287
-1.43072
-0.915093
-0.277136
0.757417
-1.41937
-2.03427
-1.69666
-0.301315
-0.0773991
0.413398
-1.28711
0.460699
-1.74831
-0.0650691
-0.0466164
0.474189
-0.225542
-1.65112
1.12706
-0.173652
0.762393
-0.376783
-0.114938
-1.64832
-0.155189
-1.97712
0.659236
-0.300661
-1.54985
0.282964
0.650649
0.994758
0.915495
-0.45293
-0.15255
0.427741
0.722319
-0.283255
-2.04254
-0.297568
0.441823
-1.08035
-0.219739
0.812326
-0.210158
0.904536
-1.01258
-0.131317
-0.0228975
-0.201591
0.501793
-0.301111
1.15222
0.722873
-1.27227
-1.99226
-0.651852
-0.31777
0.37808
0.257729
-2.03591
0.48523
-2.03323
-2.04095
0.139192
-0.156991
0.0558055
-0.387675
0.0846282
-0.920459
-0.813035
-0.818433
0.753358
-2.03662
-0.186784
-0.725892
-0.0794624
0.466666
0.555956
0.743462
-0.72199
-1.67831
0.465195
-0.327523
0.0479926
-2.02763
0.645459
0.563242
-1.01348
0.921643
0.114402
-0.0997195
-0.420664
0.509499
0.152197
0.439532
-1.17785
0.176717
0.416726
0.867102
-1.86179
-1.40792
-0.436992
0.558689
-0.12927
0.822997
0.482552
-1.95463
0.246379
-0.173864
-1.97438
-0.212901
-2.17915
-1.56482
-1.96836
-1.20527
0.336328
0.185846
0.225734
-0.345792
1.46707
-0.228606
0.506211
-0.19837
0.424751
-0.130763
-0.206163
0.930722
-0.149638
-0.270106
-1.94723
0.424332
-0.291784
0.54194
0.297993
0.503875
0.419195
-1.94588
0.623197
0.598486
0.0464878
-0.111486
-0.111152
-1.99946
0.49812
1.42772
1.32946
-2.07889
0.279827
0.38821
0.696625
-0.270161
0.20678
0.375585
-2.00901
0.064867
0.135128
0.565668
0.708001
-0.166228
-2.03839
0.423308
-0.330856
-0.00371541
0.342588
0.237002
0.150955
1.38949
-0.507724
-0.112615
-1.99831
-1.10516
-0.356703
0.464051
-0.630232
1.49341
-0.00830799
0.0233304
-2.03696
-0.13685
-0.226821
0.421874
1.06023
-0.18521
0.648431
-0.251081
-1.89098
0.923358
-1.90947
-0.11887
-2.4999
0.877086
-0.114251
-0.0589819
1.44669
-1.6233
-1.91772
-1.51033
0.663144
0.275788
-1.06788
-0.17001
0.381137
-1.88561
0.397268
-0.00461901
0.857649
-0.301617
-0.103298
-0.461946
-1.9332
-0.302034
-1.41933
-1.97217
-0.127933
-0.279914
0.501972
-0.180384
0.943669
0.375551
-1.04843
-0.59856
0.953016
-0.32566
-0.00838197
-1.92686
0.0722296
-1.41527
1.19494
-0.716162
-1.98528
-0.304357
0.103554
0.892937
-0.355399
0.820157
-0.108447
0.25663
0.576825
-1.12945
-1.81813
-1.57317
-0.125574
-1.98988
0.715636
-1.34193
0.364496
-0.128856
-1.82917
-1.99501
0.856253
1.0865
0.501938
0.121209
-1.14055
-0.00938239
0.910127
-0.118015
-0.380484
0.206082
0.32715
-1.79522
-1.80746
-1.59482
-1.60321
-0.925136
0.32267
-0.0991368
0.438941
-1.90356
-1.13431
-0.875469
-1.78937
0.0186352
-1.15956
0.232732
-1.95806
-1.22777
-2.04868
-1.9936
-0.810759
-1.25939
1.2088
0.082305
0.215299
0.802336
-0.238997
-1.82491
-2.04224
-0.145136
-0.325646
0.46316
-0.146759
-0.0949733
-1.1272
-1.06075
-1.21275
-0.114185
-1.65414
-0.125997
0.708975
-1.90688
-0.340539
-0.314391
-0.820138
-1.79491
-0.053856
-0.990108
-0.388352
1.37673
-2.02826
-0.327128
0.337975
-1.92132
-1.26642
-0.113355
-0.430389
-1.56039
-1.15928
-0.347998
0.226168
-1.91006
0.490418
-0.528353
-0.0565361
-2.04616
0.496251
-0.0878002
1.14982
0.790842
-0.618084
0.966264
-0.156251
-1.7878
-0.281753
-1.33232
0.347065
-1.91876
-1.82593
0.990286
0.674856
0.172803
-1.90937
0.89949
-1.99651
1.28137
-2.02735
-0.0531372
-1.94898
-0.0967531
0.2067
-0.301882
-1.68074
-1.11929
1.39251
-0.574973
-1.97595
-2.02604
1.29401
-0.117286
-0.986425
0.453026
0.131897
-1.29746
-0.0796055
1.0777
0.950097
-0.123066
-0.537102
-0.177094
0.297312
0.491248
-0.411336
-1.69096
1.02311
-1.10119
-0.200183
0.201119
0.522719
-0.09017
-0.369696
-0.0097969
-0.424872
1.02308
0.384937
0.775015
-0.098425
-0.105974
-0.325359
-0.335913
-0.15695
-1.91375
-1.93459
-1.97742
-1.28677
0.40078
-1.93241
-1.95371
-0.116701
-1.98941
1.427
0.336028
-0.523492
0.88827
-0.0988468
0.71273
-0.101391
0.728859
-0.0421306
-0.0178815
0.0692933
0.227133
-0.00905171
-1.28221
-0.084968
-1.03995
0.674777
-1.89587
-0.555609
-0.21211
0.133483
0.468523
-1.85763
-0.339999
-1.25427
-0.1389
-1.26703
0.675077
-2.03282
1.32375
-0.675679
-1.50009
0.406836
-0.0353792
-1.47223
0.747817
-0.382874
-0.126374
-0.146852
-2.00592
-0.237691
0.324169
-0.327028
-0.661268
-0.239023
0.18797
-0.136792
-0.950866
-1.99268
-0.333965
0.810778
-0.106012
-0.132368
-0.882005
0.483247
-0.373419
0.827485
-0.3838
-0.223421
1.24208
-1.91061
-0.190342
-0.223156
0.891628
-0.215402
0.608558
0.0147729
-0.140329
1.23065
-0.389435
0.111236
-1.87535
-0.220196
-1.17472
-1.95674
0.100981
0.766369
-0.127333
-0.302866
0.36435
-0.203222
0.820697
-0.0317503
-1.99977
-2.00287
-1.96446
-0.231342
-1.98959
-1.89635
-0.153467
1.0873
-0.178384
-0.833577
-0.255083
-0.00359009
0.280218
-1.13245
1.19946
-0.768241
0.070916
-1.09132
-0.0790467
-1.95453
0.10159
0.851511
-1.71003
-1.05017
1.21112
-0.462287
-0.136054
-0.351526
-0.111578
-0.348568
1.18857
-1.25698
-0.162774
-0.682157
-0.150347
-0.152949
-0.108783
-2.00179
0.164423
0.240344
-1.36478
-0.346019
-2.00944
-1.94707
0.81998
-0.112757
-0.139227
-1.95351
-2.00357
-0.323368
-0.372194
-0.0523121
0.117598
-0.145002
-1.6891
-1.84138
-0.724084
1.00513
-1.21344
-1.48681
-1.29333
-0.310341
-1.79723
0.556884
-1.95537
-0.2025
-0.0551859
-0.19467
-0.124717
-1.18244
1.10527
-1.32242
-1.73556
-0.119838
-0.112096
-0.471163
-0.541645
-0.180326
0.607385
-0.0925704
0.510751
-1.95635
-0.137838
-1.13365
0.252133
-1.26179
-1.88147
-1.8274
-0.51158
-0.384334
-0.132349
-0.138253
-1.94493
0.942066
-1.25019
0.246912
0.212353
0.495435
-1.91626
-0.331362
-0.109695
1.29079
0.236447
-0.252127
-1.57763
-0.11475
-0.13397
-0.142105
-0.191828
0.163253
-1.77601
0.137923
-1.89822
0.876965
-0.992643
-2.00755
-0.220716
-1.9968
0.585612
-0.0464296
0.99779
1.08937
-1.96526
-0.110895
-1.93184
-0.133188
-1.98988
-0.0566924
1.18696
-0.0895289
0.731726
0.367118
0.598251
-1.25007
-0.106032
0.232308
-0.133698
0.941918
-0.488241
-1.89031
-1.55288
1.22183
-0.402167
0.71303
-0.354908
-0.109472
0.285516
-0.861558
-0.373763
0.262704
-0.127143
0.903101
0.102001
-0.00590258
-0.134187
-0.35111
-0.119535
-0.0763065
-0.106453
0.122546
-0.465227
-0.911811
-0.786482
-1.03998
0.236972
-0.150838
-1.8238
0.051584
0.353056
0.542214
0.178426
1.31115
1.04144
-0.202032
-0.137358
0.843581
0.977499
-0.0635666
0.245931
-0.104038
1.00269
0.628065
-0.546845
-0.293609
-0.633311
-0.359879
-0.190356
-1.14454
1.25004
-0.863127
-0.347291
-1.91959
-0.195119
0.005848
0.774553
-1.17666
0.220961
-0.28735
-1.4697
-0.131297
-0.74572
-0.0764889
-0.188253
-0.449774
-0.143488
-0.385978
-0.261663
-0.193542
-1.9383
-0.00704354
0.137029
-1.91247
-2.02235
-0.803601
-1.96663
-1.08105
1.33499
-0.26643
-0.138614
0.600991
-0.00524985
-0.140926
1.07028
0.336498
-0.188958
0.985079
-0.136371
-1.96608
0.658194
-0.573582
1.03638
1.29551
-0.116876
-0.163459
-0.156625
-0.30708
-2.01416
-0.248101
-0.946871
-0.117275
0.6821
-0.297567
-0.529819
-0.220591
-0.114706
-0.139578
-1.29542
-1.87632
0.444484
1.14101
-0.167073
-1.46944
-0.313832
-0.456755
0.873137
0.883126
-1.86393
-0.161734
-0.0564937
-2.02065
0.151218
-1.87363
-1.87727
-1.94275
-1.42176
0.257526
-2.01548
-0.104334
-0.877756
-0.143768
0.176808
-1.12885
-1.90785
-0.341349
-0.10012
-1.93117
-0.816919
-0.358494
-1.40418
-0.594246
-1.69514
-0.313387
0.796846
1.24023
-0.265293
-1.91637
-0.495464
-0.103083
-0.120896
-0.295593
-1.35681
0.236482
1.26741
0.747091
-1.94027
-0.127375
0.830455
-0.132054
-0.335714
1.43556
-0.146575
-0.18332
0.271223
-0.267609
1.18506
0.929444
-0.404745
-1.91905
-1.89742
0.0605358
0.220115
-1.75044
-0.130694
-2.00681
1.35861
-0.519022
-0.0676363
-1.96265
-0.118859
1.37541
0.0400262
-0.78841
-0.439266
-0.140256
0.714135
-0.109736
-0.205755
-0.139428
-0.132334
-0.415546
-1.97321
0.231377
-0.976066
-2.02102
-1.13084
1.1799
0.78897
0.0822202
-0.109732
-0.440237
-1.07198
-0.467623
-0.17188
-1.95008
-0.267609
-0.138112
-0.0685053
0.260025
-0.172594
0.707413
-0.024245
-1.94067
-0.0866139
0.0619224
0.0998801
-1.89254
0.262226
-0.520592
-1.06928
0.252008
-1.82468
-0.108142
-1.98248
-2.01748
-0.134372
1.31806
-1.92586
0.0725243
-0.269786
-0.412112
-1.32743
0.604993
0.763855
-0.102624
-0.0677425
-2.01036
-1.87235
-0.24199
0.985942
-0.0245882
-1.97248
-1.9706
0.95956
1.06397
1.14911
-0.624202
-0.400667
1.43438
0.444371
-0.766537
-2.00213
-0.356219
-1.03675
-0.583823
-0.163686
0.0458482
0.409262
-0.312309
-0.11052
0.72244
0.297042
-0.102078
-0.175387
0.795273
-1.89925
-2.00281
-1.66756
-0.0708922
-1.51602
-2.00681
1.30718
0.041171
-0.118346
0.0695869
-0.11105
1.51016
1.2722
-0.206995
-0.109918
-0.682454
0.734805
0.872749
1.06304
1.23092
-0.446035
1.3459
0.158227
-0.880004
-0.112285
1.38366
1.48137
0.909687
-0.173753
-0.506696
-1.9048
-0.12361
-2.33424
-0.139784
-0.440412
1.3372
-0.481629
0.845035
-0.140232
0.693232
-0.408111
-0.26841
-0.418173
-0.27571
-0.358774
-0.110475
-0.488016
-0.155939
-0.703667
-1.93139
-0.135294
-0.140674
-0.30494
-1.90087
-0.414478
-0.87995
-0.225563
0.0350042
-0.320492
-1.97549
1.1207
-0.111198
0.700179
0.252567
-0.10796
-0.350266
-0.0609322
-0.354606
-1.52244
-0.329567
1.2623
0.953661
0.192335
-0.394156
-0.0992222
-0.619298
-2.33982
0.512888
-2.19782
0.0536244
0.877186
-0.0871002
1.22806
-1.98313
0.39731
-0.0882659
-0.0551895
-0.178451
0.84149
-0.886727
0.811244
-0.0442731
-1.8394
-0.103588
-1.93468
-0.12772
1.46291
-0.629084
-0.237689
-0.113396
-1.34585
1.49523
-2.19409
-1.91583
1.34488
1.52775
-0.41087
1.52549
-1.37594
-0.331278
-1.85469
0.0169158
-0.129088
1.2927
-0.418555
-0.460514
-0.281755
0.0734446
-0.0739531
0.220347
-0.224623
-2.26636
0.616354
-0.0781784
-0.267696
1.24493
0.268301
-1.62474
0.00726083
0.25457
1.15032
0.215813
-0.110216
-1.5803
-0.282131
-0.139125
-0.81085
-0.395164
-2.34816
-0.259962
-0.969053
0.896426
-0.520098
0.836769
-0.930998
-0.281803
-2.23651
0.660622
-0.260423
-0.334663
0.103173
-0.964104
0.158289
0.264981
0.0342064
-0.112043
0.984278
1.23244
-0.301134
0.546228
-0.13904
1.38907
-0.388798
-1.5646
1.31972
-0.250442
0.733587
0.0247085
-1.93129
-1.94593
-0.163433
-0.405016
-0.566583
-0.448217
-0.134181
1.38847
-0.582363
-2.35019
0.264345
-0.137688
0.0852377
-1.63045
0.0217972
0.245511
-0.405272
1.04031
-0.117691
-2.21652
0.174615
-0.284683
-0.36209
1.30312
-0.48297
-0.226544
0.36075
-0.119607
1.46619
0.0284032
-0.069781
-0.57643
-0.0239215
-1.92462
0.885786
0.130451
-0.384553
1.28048
-2.284
0.620114
-1.8953
1.2184
0.917295
-1.90401
-0.251827
0.862463
-0.0285708
-1.87978
-0.124711
-2.36142
1.18241
-2.27883
-1.95612
-0.081161
-0.140823
-0.211648
-1.55894
-0.256497
1.51158
-2.18502
-2.60204
-0.25561
-1.94763
-0.422145
1.37761
-0.0364236
-1.55211
-0.279605
1.19533
-1.97464
-2.22003
-2.23162
-0.365308
1.11122
-0.350631
-0.141356
-0.0806093
-0.854875
-0.234009
-0.846547
-1.9106
0.877558
0.0580235
1.39601
-0.422467
1.5264
-0.0427498
-0.288741
0.0959689
-0.123722
0.0291652
0.255614
0.0822341
-0.116676
-2.3162
-0.424987
-2.02841
0.921107
-0.0809122
-2.12448
-0.0249362
0.77914
-2.07524
1.27122
-0.13392
-0.430979
-0.731291
-2.75795
-0.128264
-0.21887
-0.328591
1.56175
0.260422
1.34316
-0.040348
0.34921
-0.122636
-0.10616
1.23678
-0.279181
-0.203586
-0.103022
-0.130497
-0.0692737
-0.122322
1.20348
-0.387868
-2.03335
0.0942283
0.931664
-0.205442
1.41216
1.37277
-0.498148
1.19866
0.106697
-0.0280063
-0.12183
-0.363028
1.10915
-0.114706
-1.93372
0.914616
1.09435
1.03864
-0.144605
-0.829806
-0.237584
-0.110174
1.51877
0.57868
0.106517
1.20657
-1.69812
1.40988
-2.74755
-0.150818
-0.0552321
-2.7473
-0.759472
-2.18656
-0.103282
0.230476
-0.744563
-0.00437843
-0.112315
1.286
-2.29207
-2.51968
-0.0693889
0.140063
-2.33578
0.253414
0.144695
-0.319677
0.00621438
-2.21739
-0.110502
1.48248
-0.0337834
1.20701
0.08356
-0.227417
-0.142293
-0.586144
-0.109813
0.53588
-0.577201
-0.109439
-1.92334
0.885209
-1.36787
-0.141752
0.829761
1.34053
1.2468
-0.127993
1.5786
-2.74502
-0.388243
-0.656463
1.1302
-0.109938
-2.28419
-0.1568
0.271876
-0.367698
0.1793
-0.243618
0.000333412
-0.293681
0.271205
-0.121272
1.47449
-0.0804335
1.46818
-0.312495
0.939634
-0.0521682
-2.32058
0.250332
1.50259
-0.125316
-0.408295
0.756979
-1.95363
-0.141258
-0.238474
-2.31186
0.0142292
-0.110147
-2.26157
-1.96149
1.10356
-0.741189
0.153864
0.959805
-0.109959
1.12356
0.003155
-1.92659
-0.318651
1.07734
-0.163048
-0.00163625
1.00703
0.944803
-0.931802
1.26101
1.0342
-2.75844
-2.14588
0.0140034
0.130228
-2.63354
1.47098
0.0548735
-0.750354
-2.30571
-0.368923
1.52351
0.825849
-2.73434
-2.31016
1.07328
-0.374172
-2.20142
-1.46694
0.292908
-2.26362
-0.138878
-0.370649
-2.09121
-1.98644
-0.0102504
-1.35273
1.42855
-1.44845
-2.38118
-2.36321
1.17173
-0.180063
-0.644616
-2.35377
1.12008
-0.242105
1.40111
-0.099942
-2.29384
-0.00808173
-0.189385
1.50894
-2.09253
-2.7466
-0.395307
-0.00253917
-0.292624
-1.62276
-0.111291
-0.0592438
0.936828
-1.74555
0.0451701
-0.360443
-0.110966
-1.87034
0.193643
1.28399
-0.0853836
-1.79522
-1.56433
1.51317
-1.9435
1.56339
-0.105824
-1.77522
1.18648
-2.20582
-0.0783507
-1.47931
1.37975
0.00210679
-1.45357
1.44655
1.42025
-1.92548
-2.37876
1.45143
1.1597
-0.320227
-0.279353
-1.54348
-2.26492
0.299901
-0.740047
-0.182605
-0.379865
-0.258395