/*--------------------------------*- C++ -*----------------------------------*\
  =========                 |
  \\      /  F ield         | OpenFOAM: The Open Source CFD Toolbox
   \\    /   O peration     | Website:  https://openfoam.org
    \\  /    A nd           | Version:  8
     \\/     M anipulation  |
\*---------------------------------------------------------------------------*/
FoamFile
{
    version     2.0;
    format      ascii;
    class       surfaceScalarField;
    location    "0.750";
    object      phi_0;
}
// * * * * * * * * * * * * * * * * * * * * * * * * * * * * * * * * * * * * * //

dimensions      [0 3 -1 0 0 0 0];

internalField   nonuniform List<scalar> 
23855
(
9.81722e-05
-0.000707446
0.000609274
0.000624702
-0.000395396
-0.000229306
0.00083657
-0.000359102
-0.000477467
9.77328e-05
0.000476808
-0.000574541
0.000159045
-0.000950351
0.000791306
0.00102291
-0.000769976
-0.000252935
0.00115047
-0.000675744
-0.000474723
0.00112893
-0.000880009
-0.000248925
-0.00027187
0.00106323
-0.000791357
0.000583767
0.000132459
-0.000716226
0.0010268
-0.00123629
0.000209492
0.00126608
-0.00100315
-0.000262929
-0.000656175
0.0015828
-0.00092662
0.00109731
-4.67781e-05
-0.00105054
0.000216848
-0.00131485
0.001098
0.00125208
-0.00124847
-3.6013e-06
0.00138193
-0.00129427
-8.7663e-05
0.00107014
-0.00134201
-0.000210912
0.00123772
-0.00141755
0.00141185
5.69488e-06
-0.0012036
-0.000136729
0.00134033
0.00021972
-0.00136663
0.000137171
-0.00111253
-0.000275389
-0.00110477
0.00138016
-0.000291876
0.00139311
-0.00110123
0.00141024
-0.00123989
-0.000170354
-0.000666553
0.00151099
-0.000844439
-0.00142291
0.00136163
6.12844e-05
-0.00120633
0.000982686
0.000223639
0.000598467
-0.00125464
0.00112168
-0.00141356
0.000201088
-0.00136681
0.00084774
0.000341752
-0.00118949
-0.000864225
-0.00017492
0.00103914
-0.000423218
0.00152968
-0.00110646
-0.00119119
0.000915799
0.000916291
-0.000955517
3.92256e-05
1.048e-05
-0.00100423
0.000993747
-7.19242e-05
-0.000701722
-0.000107603
0.000744786
-0.000637183
-0.000187442
-0.00101888
0.00113487
-0.00155809
0.00109407
-0.0011145
2.04294e-05
-4.30639e-05
-0.000662598
0.0013088
-4.94819e-05
-0.00125932
-0.000992098
0.000618092
0.000374006
-4.6461e-05
0.000737289
-0.000690828
0.00111133
0.000223229
-0.00133456
4.45995e-05
0.00072815
-0.000772749
-6.04707e-05
0.00053867
-0.000478199
-0.00137657
0.00101375
0.00036282
-0.000707848
0.000729646
-2.17981e-05
-0.000950396
0.000151968
-0.000250307
0.000478083
-0.000227776
-0.00049748
0.00148416
-0.000986677
-0.000739942
0.000460966
0.000278976
-0.000336718
0.000577465
-0.000240748
0.000726476
-3.03105e-05
-0.000696165
0.00160394
-0.000626474
-0.000977464
-0.000962487
-0.000414087
-0.000314072
-0.000139084
0.000453156
3.16378e-05
0.000351527
-0.000383165
-0.000427411
-0.000312531
0.000479613
-0.000200554
-0.000279059
0.00146931
-0.000895876
-0.000573438
-7.24676e-05
0.000356214
-0.000283747
-0.000408271
0.000478244
-6.99735e-05
-0.000258981
0.000387419
-0.000128438
0.00127099
-0.000841584
-0.000429405
-0.000486748
-0.000557913
0.000376633
0.00018128
-0.000928032
0.00028559
0.000642441
-0.00070341
9.79794e-05
0.000605431
0.000284195
0.000218072
-0.000502266
-0.000208665
-0.000494745
0.000512055
-0.000632618
0.000120563
-3.74092e-05
-0.000600171
-0.000352385
-0.000575647
-4.64211e-05
0.000473799
-0.000427378
0.000687217
0.000809049
-0.00149627
-0.000624514
0.00136697
-0.000742457
0.00103609
0.000202945
-0.00123903
0.000962548
-1.97484e-05
-0.000942799
6.2097e-05
0.000416205
-0.000478302
-0.000206975
0.000982719
-0.000775744
0.00120673
-0.000497199
-0.000709527
0.00060708
3.373e-05
-0.00064081
0.000971737
0.000377314
-0.00134905
0.00106836
-0.0010998
3.14329e-05
0.000796413
-0.000820422
2.40086e-05
0.000932189
0.000734676
-0.00166687
-0.000207058
-0.000350855
0.0014613
-0.000872876
-0.000588426
0.000580926
0.00059778
-0.00117871
0.0016694
-0.000765479
-0.000903919
0.000498815
0.0015751
-0.000673644
-0.000901459
-0.000752966
0.00160639
-0.000853422
-0.000699867
0.0013551
-0.000655238
-3.28079e-05
0.000610295
-0.000577487
-0.00034322
0.00095965
-0.00061643
0.000741832
0.000913332
-0.00165516
-2.1315e-05
0.00036927
-0.000347955
0.000393648
-2.43774e-05
-0.00036927
-0.000321108
0.000704267
-0.000383158
5.50315e-05
-0.000314013
0.00166357
-0.000721343
-0.000942222
0.000365964
4.13921e-05
-0.000407356
0.000634189
0.000618501
-0.00125269
-0.000378712
6.46399e-05
-0.000759647
0.00160219
-0.000842546
0.000724572
0.00082505
-0.00154962
-0.000709283
0.00130883
-0.000599547
-4.07688e-05
0.000599373
-0.000558604
-0.000432584
0.000897331
-0.000464747
-2.18853e-05
0.000347955
-0.00032607
0.000629306
0.00098153
-0.00161084
0.00161201
-0.000554717
-0.00105729
0.000309388
-2.07211e-05
-0.000288667
-0.000373065
0.000826346
-0.000453281
0.000716983
-0.00129158
0.000574597
0.000342716
2.10393e-05
-0.000363755
-0.000669784
0.00156503
-0.000895248
0.00032368
-0.000342269
1.85888e-05
0.000673634
0.000885201
-0.00155883
-5.97802e-05
0.000585211
-0.000525431
-0.000640024
0.00122184
-0.000581815
-0.000466611
0.000806192
-0.000339581
-2.66071e-05
0.00032607
-0.000299463
0.000418884
0.00109627
-0.00151515
0.00151616
-0.000307791
-0.00120837
0.000830618
0.000454123
-0.00128474
0.000384231
-7.69765e-05
-0.000307254
-0.00036783
0.000920073
-0.000552242
0.000345166
2.04564e-06
-0.000347212
-0.000458869
0.00147835
-0.00101948
0.00036299
-0.000342558
-2.04316e-05
0.000514566
0.000986658
-0.00150122
-0.000456934
0.0010901
-0.00063317
-8.65431e-05
0.000559302
-0.000472759
-0.00043673
0.000690502
-0.000253772
0.000155256
0.00123453
-0.00138978
-3.38709e-05
0.000299463
-0.000265592
-0.000312497
0.000980991
-0.000668494
0.00137751
-1.05126e-05
-0.001367
0.000471263
-0.000109912
-0.000361351
0.000954699
0.000263249
-0.00121795
0.000367644
-1.18677e-05
-0.000355776
-0.000169147
0.00135231
-0.00118316
0.000280625
0.00111534
-0.00139597
0.000419535
-0.000372335
-4.71993e-05
-0.000164905
0.000921411
-0.000756506
-0.000340094
0.000556803
-0.000216709
-0.000112252
0.000514721
-0.000402469
-0.00012324
0.00136156
-0.00123832
-4.19626e-05
0.000265592
-0.000223629
0.000402975
-2.05965e-05
-0.000382379
0.000556902
-0.000118451
-0.000438452
0.00106377
4.96896e-05
-0.00111346
-0.000221279
0.0010076
-0.000786318
0.00119926
0.000294979
-0.00149424
2.82292e-05
0.0012391
-0.00126733
0.000482247
-0.000422353
-5.98942e-05
0.00016774
0.00117666
-0.0013444
0.000181457
0.000746135
-0.000927592
-0.000186341
0.000419694
-0.000233353
-0.000123781
0.00045127
-0.000327489
-4.88014e-05
0.000223629
-0.000174828
-0.000387346
0.00146838
-0.00108104
0.000442273
-2.40595e-05
-0.000418213
0.000629226
-0.000106434
-0.000522791
0.00103963
0.000530252
-0.00156988
-0.000117443
0.00100015
-0.000882703
0.00114871
-0.000167142
-0.00098157
0.000540804
-0.000481013
-5.97904e-05
0.000454612
0.00100237
-0.00145698
-0.000230067
0.00134806
-0.00111799
0.000464901
0.000622324
-0.00108723
7.32314e-06
0.000301257
-0.00030858
-0.000112638
0.00037658
-0.000263942
-0.00058045
0.00153743
-0.000956983
-4.90902e-05
0.000174828
-0.000125738
-3.01804e-06
0.000948982
-0.000945964
0.000680218
-7.99839e-05
-0.000600234
0.000935281
0.000673275
-0.00160856
0.000478004
-2.25161e-05
-0.000455488
0.00120915
-0.000370517
-0.000838633
-0.000456396
0.00143068
-0.000974283
0.000587448
-0.000538032
-4.94158e-05
0.0006346
0.000883533
-0.00151813
-7.87811e-05
0.000304071
-0.00022529
0.000625155
0.000576842
-0.001202
0.00019865
0.00022934
-0.00042799
-4.01285e-05
0.000125738
-8.56094e-05
-0.00070164
0.001577
-0.000875364
0.000888638
0.000741051
-0.00162969
0.000125416
0.00085147
-0.000976886
0.00123983
-0.00070578
-0.000534045
0.000708323
-4.75835e-05
-0.00066074
0.000504904
-1.71671e-05
-0.000487736
0.000719918
0.000831104
-0.00155102
-0.000620021
0.00148028
-0.000860262
0.000618016
-0.00058459
-3.34256e-05
0.000676997
0.00059892
-0.00127592
0.000343608
0.000221543
-0.000565151
-2.83796e-05
0.000247654
-0.000219274
-0.000758847
0.00159967
-0.000840823
-2.23645e-05
8.56094e-05
-6.3245e-05
0.000256021
0.000718671
-0.000974692
0.00123791
-0.000644688
-0.000593219
0.000893146
0.000751464
-0.00164461
0.000714851
-1.33412e-05
-0.000701509
0.000521162
-9.51874e-06
-0.000511643
-0.000724306
0.00150611
-0.000781801
0.000736542
0.000835964
-0.00157251
0.000632174
-0.00061716
-1.50139e-05
0.000657496
0.00066441
-0.00132191
0.000418889
0.000275582
-0.000694472
2.71341e-05
0.000218674
-0.000245808
6.00426e-07
6.3245e-05
-6.38454e-05
-0.000759031
0.0016033
-0.000844265
0.000526657
-1.35568e-06
-0.000525302
0.00120221
-0.000694279
-0.000507927
0.000948964
0.000691166
-0.00164013
0.000703146
1.97926e-05
-0.000722939
0.000364684
0.000574716
-0.0009394
0.000695647
0.000892919
-0.00158857
0.000630501
-0.000635084
4.58301e-06
-0.000762473
0.00150701
-0.000744532
0.000580291
0.000766835
-0.00134713
0.000423563
0.000378533
-0.000802096
7.36231e-05
0.00022385
-0.000297473
-0.000653675
0.00158217
-0.000928497
2.19584e-05
6.38454e-05
-8.58038e-05
0.000426106
0.000443936
-0.000870042
0.000670031
5.28609e-05
-0.000722892
0.00106144
0.000520024
-0.00158146
0.00112525
-0.000668314
-0.000456932
0.000520719
6.88343e-06
-0.000527602
0.000615291
-0.000639178
2.38864e-05
-0.000737906
0.00148477
-0.00074686
0.000578688
0.000993927
-0.00157261
0.000470308
0.000895434
-0.00136574
0.000101896
0.000260024
-0.00036192
0.000366785
0.000512788
-0.000879572
-0.000424312
0.00150516
-0.00108085
3.74489e-05
8.58038e-05
-0.000123253
0.00042741
0.000335972
-0.000763382
0.000503716
1.48494e-05
-0.000518565
0.00121323
0.000254012
-0.00146724
0.00060976
8.72118e-05
-0.000696972
0.000996063
-0.000537097
-0.000458966
0.000368238
0.00112811
-0.00149635
-0.000576662
0.00141449
-0.00083783
0.000586317
-0.000627718
4.14014e-05
0.00010903
0.000316728
-0.000425758
0.000312442
0.00102219
-0.00133463
0.000279983
0.000649198
-0.000929181
4.51925e-05
0.000123253
-0.000168445
-0.000100306
0.00136955
-0.00126924
0.000477164
2.17836e-05
-0.000498947
0.00136826
-6.29209e-05
-0.00130534
0.000356121
0.000268362
-0.000624483
0.00052509
0.00011679
-0.000641881
0.000817127
-0.000551696
-0.000265431
-0.000288703
0.00128639
-0.000997688
9.89783e-05
0.00127091
-0.00136989
0.000540507
-0.000597829
5.73227e-05
0.000108134
0.00113581
-0.00124395
0.000206435
0.000760163
-0.000966598
9.97998e-05
0.000380941
-0.000480741
0.000263837
0.00117276
-0.0014366
4.48168e-05
0.000168445
-0.000213262
0.00149783
-0.000388502
-0.00110933
0.000625151
-0.000722673
9.75225e-05
0.000441625
2.708e-05
-0.000468705
0.000222242
0.000247053
-0.000469295
0.000427476
0.00013314
-0.000560616
-0.000192493
0.00139349
-0.001201
9.64827e-05
0.00109903
-0.00119551
0.000481039
-0.000549766
6.87276e-05
-0.000119466
0.0012276
-0.00110813
8.14829e-05
0.000441738
-0.000523221
0.000140939
0.000848491
-0.00098943
3.90024e-05
0.000213262
-0.000252264
0.000573632
0.000972514
-0.00154615
0.000477664
-0.000920308
0.000442644
3.95857e-05
0.000290257
-0.000329843
0.000399977
2.9443e-05
-0.00042942
0.000336213
0.000127617
-0.000463829
0.00157803
-0.000636548
-0.000941485
0.000464083
0.000896169
-0.00136025
0.000416626
-0.000488105
7.14791e-05
-0.000468703
0.00148745
-0.00101875
-0.000346725
0.00129076
-0.000944032
4.73481e-05
0.000915957
-0.000963305
6.11049e-05
0.000492851
-0.000553956
0.000762678
0.000836127
-0.0015988
3.03705e-05
0.000252264
-0.000282635
0.00161458
-0.000791425
-0.000823159
0.00041825
0.000667529
-0.00108578
0.000357941
2.77565e-05
-0.000385697
0.000272171
9.57851e-05
-0.000367956
-0.000159509
0.000403482
-0.000243973
-0.000673099
0.00153711
-0.000864011
0.000360488
-0.000421614
6.11251e-05
0.00071002
0.000751258
-0.00146128
-0.000542772
0.00131958
-0.000776804
-7.73182e-05
0.000953554
-0.000876236
4.17693e-05
0.000532739
-0.000574509
2.12161e-05
0.000282635
-0.000303851
0.000858413
0.000769197
-0.00162761
0.000324572
2.07995e-05
-0.000345372
-0.000328774
0.000560639
-0.000231865
0.000249719
4.22198e-05
-0.000291939
0.000440182
-0.00120036
0.000760182
0.00163374
-0.000877475
-0.00075627
0.000325828
-0.000363232
3.74036e-05
0.000829608
0.000686044
-0.00151565
-0.000810586
0.00155751
-0.000746925
2.19384e-05
0.000562069
-0.000584007
-0.000213701
0.000959007
-0.000745305
-0.000690292
0.00131563
-0.000625338
1.24399e-05
0.000303851
-0.000316291
0.000886954
0.000762356
-0.00164931
0.000307968
8.66976e-06
-0.000316638
0.00163827
-0.000900525
-0.00073774
-0.000438539
0.000723122
-0.000284583
0.000511085
-0.00127801
0.000766921
0.000273745
-2.22728e-05
-0.000251473
-0.000881995
0.00155737
-0.000675376
0.000865254
0.00068786
-0.00155311
0.000321012
-0.000326553
5.54039e-06
1.43169e-06
0.000580427
-0.000581859
-0.000780291
0.00127963
-0.000499339
-0.000337117
0.00092904
-0.000591923
3.58042e-06
0.000316291
-0.000319871
0.00085656
0.000808067
-0.00166463
0.00062082
0.00070347
-0.00132429
-0.000475248
0.000861478
-0.00038623
0.0016288
-0.000846098
-0.0007827
0.000338634
-8.28028e-05
-0.000255831
0.000311098
-5.19039e-06
-0.000305907
0.000841242
0.000741659
-0.0015829
-0.000891059
0.00153776
-0.000646702
0.000348825
-0.000319818
-2.90073e-05
-0.000796898
0.00120725
-0.000410348
-0.000429694
0.000864529
-0.000434835
-2.17673e-05
0.000587939
-0.000566171
0.000719977
0.0009171
-0.00163708
-6.08e-06
0.000319871
-0.000313791
0.00157592
-0.000649808
-0.000926113
0.000334915
-1.8115e-05
-0.0003168
0.0007685
0.00058962
-0.00135812
0.000431067
-0.000127073
-0.000303994
-0.000441461
0.000966618
-0.000525157
-0.00079322
0.00148409
-0.00069087
0.000747527
0.000850138
-0.00159767
0.000402621
-0.000344467
-5.81536e-05
-5.11544e-05
0.000582807
-0.000531653
-0.000719895
0.00108231
-0.000362415
-0.000471448
0.000766609
-0.000295161
-1.66357e-05
0.000313791
-0.000297156
0.000460911
0.00108364
-0.00154455
-0.000353307
0.00103549
-0.00068218
0.000374953
-2.73616e-05
-0.000347592
0.00146087
-0.000328277
-0.00113259
0.000923717
0.000437187
-0.0013609
0.000535238
-0.000146259
-0.000388978
-0.000534759
0.00137073
-0.000835968
0.000553441
0.000998844
-0.00155229
0.00047154
-0.000396138
-7.54024e-05
-0.000502273
0.000903425
-0.000401153
-8.36658e-05
0.000559162
-0.000475496
-0.000445626
0.000639114
-0.000193487
-2.75095e-05
0.000297156
-0.000269646
0.000122846
0.00127789
-0.00140074
0.00128252
6.2729e-05
-0.00134525
-0.000257054
0.00107943
-0.000822375
0.000632833
-0.000141086
-0.000491747
0.00107066
-0.00128819
0.00021753
0.000422994
-3.17277e-05
-0.000391266
-0.000149928
0.00119816
-0.00104823
0.000542397
-0.000463248
-7.91497e-05
0.000266657
0.00117735
-0.00144401
-0.000148845
0.00069314
-0.000544295
-0.000341895
0.000492268
-0.000150373
-0.00011038
0.000514001
-0.000403621
-3.85047e-05
0.000269646
-0.000231141
-0.000234924
0.00145244
-0.00121751
0.0011978
-3.31621e-05
-0.00116464
0.00107095
0.000433164
-0.00150411
0.000470416
-3.11891e-05
-0.000439227
0.000709213
-0.000119065
-0.000590148
-0.000178467
0.00111561
-0.000937143
0.000274306
0.000986667
-0.00126097
0.000604334
-0.000532295
-7.20384e-05
-5.17027e-05
0.00134346
-0.00129176
-0.000120676
0.000450387
-0.000329711
0.00024328
0.000508511
-0.00075179
-0.000181026
0.00034936
-0.000168335
-4.67661e-05
0.000231141
-0.000184375
-0.000538952
0.00157997
-0.00104102
-7.69974e-05
0.00110579
-0.00102879
0.000761101
-9.10507e-05
-0.00067005
0.00129721
-0.00101174
-0.000285469
0.000511265
-2.7286e-05
-0.000483979
0.000908957
0.000676155
-0.00158511
-0.00036246
0.00147821
-0.00111575
0.000651361
-0.00059234
-5.90208e-05
0.000595152
0.000810716
-0.00140587
0.000539612
0.000410838
-0.00095045
1.33549e-05
0.000233463
-0.000246818
-0.000109207
0.000377554
-0.000268347
-4.78437e-05
0.000184375
-0.000136532
-0.000722471
0.00164276
-0.000920293
0.000543
-2.12711e-05
-0.000521729
6.30756e-05
0.00102509
-0.00108816
0.00135935
-0.000502652
-0.000856698
0.000791424
-6.19604e-05
-0.000729463
0.000825102
0.00079613
-0.00162123
-0.000601741
0.00156427
-0.000962529
0.000683391
-0.000639437
-4.39532e-05
0.000760009
0.000721551
-0.00148156
-7.62575e-05
0.000307845
-0.000231588
0.000197613
0.000170634
-0.000368247
0.00068448
0.000410803
-0.00109528
-3.94979e-05
0.000136532
-9.70337e-05
-0.000813035
0.00167029
-0.000857257
0.000565682
-1.45825e-05
-0.0005511
0.000809925
0.000826657
-0.00163658
0.000219558
0.000893651
-0.00111321
0.000805183
-3.20341e-05
-0.000773149
-0.00072199
0.00138345
-0.000661462
0.000811307
0.000711394
-0.0015227
0.000701398
-0.000673851
-2.75469e-05
-0.000749999
0.00160429
-0.000854287
0.00033252
0.000174881
-0.000507401
0.000716591
0.000474587
-0.00119118
-2.88847e-05
0.000254171
-0.000225286
-0.000831457
0.00167843
-0.000846978
-2.25834e-05
9.70337e-05
-7.44503e-05
0.000807566
-2.9135e-06
-0.000804653
0.000365227
0.000739066
-0.00110429
0.000578647
-7.65692e-06
-0.00057099
0.000849118
0.000787808
-0.00163693
-0.00137667
0.000654684
-0.000821178
0.00161928
-0.000798106
0.000705885
-0.000696375
-9.50995e-06
0.000787464
0.00075207
-0.00153953
2.2023e-05
0.000226683
-0.000248706
0.000400227
0.000239079
-0.000639306
0.000676068
0.000571395
-0.00124746
-1.39681e-06
7.44503e-05
-7.30535e-05
-0.000777576
0.00168009
-0.000902512
0.000950024
0.000661903
-0.00161193
0.0005805
-2.55472e-07
-0.000580244
0.000788788
3.06954e-05
-0.000819483
0.000475187
0.0005858
-0.00106099
0.000686902
0.000845307
-0.00153221
0.00061515
-0.00134084
0.000725688
0.000699288
-0.000709291
1.00026e-05
-0.000833111
0.00161952
-0.000786404
0.000564753
0.000703586
-0.00126834
6.43001e-05
0.000230554
-0.000294854
0.000398311
0.000349839
-0.00074815
1.8152e-05
7.30535e-05
-9.12055e-05
-0.000597626
0.00164454
-0.00104691
0.000532686
0.000448095
-0.00098078
0.000728517
7.7137e-05
-0.000805655
0.000570242
8.21999e-06
-0.000578462
0.00109536
0.000426659
-0.00152202
0.000678596
-0.000709266
3.06698e-05
-0.000742027
0.00159866
-0.000856629
0.00054541
-0.0012634
0.000717989
0.000516566
0.000977721
-0.00149429
8.96385e-05
0.000262906
-0.000352544
0.000411633
0.000849053
-0.00126069
0.000339926
0.000486234
-0.00082616
0.00153741
-0.000290582
-0.00124682
3.19484e-05
9.12055e-05
-0.000123154
-0.000490493
0.00152063
-0.00103014
0.00062801
0.00012943
-0.00075744
0.000547792
1.72054e-05
-0.000564997
0.000517295
0.000337711
-0.000855006
0.000632129
-0.000686858
5.47293e-05
0.000109203
0.0012598
-0.001369
0.000521315
-0.00112377
0.000602457
0.000234452
0.000980059
-0.00121451
0.000254411
0.000620436
-0.000874847
9.57125e-05
0.000313922
-0.000409634
0.00136118
7.3722e-05
-0.0014349
0.00026222
0.00112869
-0.00139091
3.86226e-05
0.000123154
-0.000161776
-0.000114353
0.00136901
-0.00125465
0.000510268
2.651e-05
-0.000536778
0.000503541
0.000173137
-0.000676678
0.000411078
0.000276545
-0.000687623
-0.000218186
0.00139801
-0.00117982
0.000557428
-0.000637897
8.04688e-05
0.000599749
-0.000924251
0.000324502
0.000174135
0.000729802
-0.000903937
2.14484e-05
0.00108637
-0.00110782
0.00114484
0.000428858
-0.0015737
8.62512e-05
0.000371794
-0.000458045
-2.90036e-05
0.00126261
-0.00123361
0.000290059
0.00115671
-0.00144677
3.78405e-05
0.000161776
-0.000199617
0.000224092
0.00027811
-0.000502202
-0.000306306
0.00117061
-0.000864301
0.000377004
0.000193684
-0.000570689
0.000456309
3.5375e-05
-0.000491684
0.00046476
-0.000564578
9.98181e-05
-0.000517466
0.00150418
-0.000986714
6.72883e-05
0.000426351
-0.000493639
-0.000210496
0.00116246
-0.000951968
9.59965e-05
0.000811458
-0.000907454
0.000957885
0.000684996
-0.00164288
3.16942e-05
0.000199617
-0.000231311
-0.000324359
0.00137148
-0.00104712
0.000615813
0.00095107
-0.00156688
-0.000629948
0.00136
-0.000730052
-2.22172e-05
0.000379642
-0.000357425
0.000272706
0.000179747
-0.000452453
0.000391866
4.08054e-05
-0.000432672
-0.000723988
0.00155624
-0.000832252
0.000370893
-0.000474518
0.000103625
-0.000420509
0.00119859
-0.000778083
1.2416e-06
0.000863702
-0.000864944
4.5882e-05
0.000471096
-0.000516978
0.000837673
0.000837813
-0.00167549
-0.000569527
0.00143774
-0.000868214
2.25428e-05
0.000231311
-0.000253854
0.000805208
0.000822501
-0.00162771
-0.000787438
0.00147443
-0.000686995
0.000329047
3.95577e-05
-0.000368604
-0.000261378
0.000564318
-0.000302939
0.00021185
0.000130019
-0.000341869
0.000294771
-0.000382298
8.75269e-05
-0.000860639
0.00157618
-0.000715536
-0.000586084
0.00119506
-0.000608976
-0.000110473
0.000885799
-0.000775326
0.00078137
0.000921522
-0.00170289
2.56447e-05
0.000503994
-0.000529639
0.000894117
0.000769908
-0.00166402
1.29844e-05
0.000253854
-0.000266838
-0.000743923
0.00146048
-0.000716553
0.000206587
5.31654e-05
-0.000259752
-0.000835651
0.0015448
-0.000709146
-0.000433753
0.000769745
-0.000335993
0.000281078
2.96817e-05
-0.000310759
-0.000936462
0.00158004
-0.000643581
0.000252279
-0.000305398
5.31191e-05
-2.18578e-05
-8.04433e-05
0.000102301
0.000785754
0.000948134
-0.00173389
-9.48197e-06
-0.000153692
0.000163173
7.67417e-06
0.000525452
-0.000533126
-0.000223843
0.000874601
-0.000650758
-0.000701997
0.00115517
-0.000453173
-0.000864507
0.0014569
-0.000592393
0.000917137
0.000778003
-0.00169514
4.18646e-06
0.000266838
-0.000271025
0.000106571
-0.000128164
2.15929e-05
-0.000522362
0.000945422
-0.000423061
0.00025764
1.25596e-05
-0.0002702
-0.000813033
0.00159517
-0.000782134
0.000255628
-3.33923e-05
-0.000222236
-0.000953115
0.00156666
-0.000613547
0.000252233
-0.000260003
7.77014e-06
-0.000755974
0.00107542
-0.000319443
0.000846585
0.000900195
-0.00174678
-0.000316718
0.000827072
-0.000510355
-7.94287e-06
0.000536761
-0.000528818
8.60467e-05
-9.79037e-05
1.1857e-05
-0.000923081
0.00142716
-0.000504077
0.000887304
0.000842862
-0.00173017
-3.63491e-06
0.000271025
-0.00026739
-0.000723656
0.00163441
-0.000910756
-7.44502e-05
5.25924e-05
0.00026243
-7.00352e-06
-0.000255426
-0.000533005
0.0010805
-0.000547498
0.000346051
-0.000108934
-0.000237117
-4.39734e-06
-7.00633e-05
7.44606e-05
-3.30243e-06
-6.42389e-05
6.75413e-05
-0.000860845
0.00151861
-0.000657768
0.000293395
-0.000255287
-3.81084e-05
-2.54317e-05
0.000539813
-0.000514381
-0.000371008
0.000744253
-0.000373245
0.000945124
-0.000232833
-0.000712292
7.61058e-06
4.99681e-05
-5.75787e-05
-7.03323e-05
-1.61557e-05
8.6488e-05
0.00099019
0.000696316
-0.00168651
-6.41242e-05
6.08217e-05
-1.09944e-05
0.00026739
-0.000256396
-0.000905066
0.00135877
-0.000453706
4.05524e-05
-8.87812e-05
4.82288e-05
0.000756591
0.000974055
-0.00173065
0.000460395
-0.000160847
-0.000299549
-2.56429e-06
-3.68404e-05
3.94047e-05
-0.000475081
0.0011746
-0.000699522
0.000293534
-2.33256e-05
-0.000270209
-0.000588935
0.00166687
-0.00107793
0.000364221
-0.000290017
-7.42036e-05
-3.24303e-06
-3.38907e-05
3.71337e-05
5.32012e-05
-6.24262e-05
9.22497e-06
-0.000563203
0.00138933
-0.000826122
0.00121095
0.000318849
-0.0015298
-8.11254e-05
1.07931e-05
-0.000371063
0.000631477
-0.000260414
0.000758851
-0.000205204
-0.000553648
4.77633e-05
-4.03102e-05
-7.45312e-06
-1.64046e-05
1.8862e-05
-2.45742e-06
-4.63453e-05
0.000532238
-0.000485893
0.000475556
0.00116435
-0.00163991
-1.90031e-05
1.64389e-05
-1.78572e-05
0.000256396
-0.000238538
-0.000731557
0.00122196
-0.000490403
-0.000374007
0.00123039
-0.000856382
-0.000369224
0.00164422
-0.001275
0.000344413
-3.43023e-05
-0.00031011
0.000579439
-0.000179814
-0.000399624
-9.40245e-05
0.00117085
-0.00107683
5.89025e-06
-4.08402e-05
3.495e-05
-5.51398e-06
-1.4466e-05
1.998e-05
0.000450864
-0.000357891
-9.29725e-05
-2.30116e-05
-1.36006e-06
2.43717e-05
0.00143851
-0.000139185
-0.00129933
-6.56881e-05
0.000509573
-0.000443884
-0.0003073
0.000498957
-0.000191657
0.000533185
-0.000276805
-0.00025638
-4.03933e-06
4.03933e-06
1.58093e-05
-1.65084e-05
6.99058e-07
1.76543e-05
-1.24316e-06
-1.64112e-05
9.12834e-05
0.0013822
-0.00147348
3.36735e-05
7.20231e-06
-4.08758e-05
0.000104606
-4.32881e-05
-6.13176e-05
-2.36796e-05
0.000238538
-0.000214859
-0.000344728
0.00100052
-0.00065579
0.00068552
-0.000167746
-0.000517774
0.000403083
-3.79969e-05
-0.000365086
-5.17175e-06
5.17175e-06
-8.29599e-05
0.00153271
-0.00144975
-0.000274151
0.00126545
-0.000991304
-3.58957e-06
3.58957e-06
0.000537706
-0.000444141
-9.35642e-05
-1.01635e-06
-5.17175e-06
6.18811e-06
-2.74563e-05
-5.36691e-05
-1.97286e-06
-3.58957e-06
5.56244e-06
0.000397982
0.000911141
-0.00130912
0.000157386
-0.000168129
1.07425e-05
0.000327381
0.000123741
-0.000451122
-0.000182355
0.000364372
-0.000182017
-7.7442e-05
0.000471736
-0.000394294
0.00161597
-0.000554282
-0.00106169
3.73069e-06
-3.73069e-06
-3.76627e-06
3.76627e-06
4.12317e-05
1.26403e-06
-4.24957e-05
1.66634e-05
-1.15255e-06
-1.55108e-05
-2.78518e-05
0.000214859
-0.000187007
3.70647e-06
-1.96224e-05
1.59159e-05
-0.000316638
0.00156582
-0.00124918
0.000165684
0.000739385
-0.00090507
-5.04286e-05
0.00023068
-0.000180251
0.000766521
-0.000135315
-0.000631206
-4.7538e-05
6.1357e-05
-1.3819e-05
0.000221103
0.00135741
-0.00157852
5.12891e-05
5.05132e-05
-0.000101802
-0.000184248
0.000299632
-0.000115384
-0.000148199
0.00125738
-0.00110919
0.000219287
-0.00018055
-3.87366e-05
0.00045865
-3.48834e-05
-0.000423767
0.000611887
-0.000531765
-8.01224e-05
0.00073639
0.000714273
-0.00145066
8.8774e-05
-3.74849e-05
-0.00013895
-4.52472e-05
0.000184197
0.000210711
0.000455365
-0.000666076
5.22407e-06
-5.27621e-05
-2.18952e-05
0.000252269
-0.000230374
0.00169969
-0.00079697
-0.000902716
3.72717e-05
1.53777e-06
-3.88094e-05
-7.42645e-05
0.000423327
-0.000349063
-1.3294e-05
5.75802e-05
-4.42862e-05
0.00059485
0.000537983
-0.00113283
-0.000172514
0.000170075
2.43907e-06
-0.000638
0.00167771
-0.00103971
-2.90331e-05
0.000187007
-0.000157974
-8.80554e-05
-2.99352e-05
0.000117991
0.000503889
-2.69127e-05
-0.000476976
1.38959e-05
0.00118288
-0.00119678
-4.03518e-06
0.000139242
-0.000135207
0.000822834
-9.75958e-05
-0.000725239
0.000492601
0.00114998
-0.00164258
0.000882767
0.000630525
-0.00151329
1.61475e-05
-1.77633e-05
1.6158e-06
0.00066708
-0.000607132
-5.99474e-05
-1.71365e-05
0.000165218
-0.000148082
-4.07263e-06
4.07263e-06
-3.57596e-07
-5.56244e-06
5.92003e-06
-2.83906e-07
5.05823e-05
-5.02984e-05
-2.68781e-05
2.65942e-05
0.000142965
0.00018313
-0.000326096
4.13091e-05
5.48239e-06
-4.67914e-05
4.98108e-05
-5.73259e-06
-4.40782e-05
-0.000139265
0.000135229
0.00171903
-0.000898503
-0.000820526
-5.39537e-05
0.000373915
-0.000319961
9.20789e-05
-0.000123625
3.1546e-05
0.000202244
-0.000856112
0.000653868
7.23478e-05
-2.7157e-05
-4.51908e-05
0.000820139
0.000459318
-0.00127946
3.49541e-07
-5.68843e-06
5.33888e-06
-0.000816312
0.00171277
-0.00089646
-2.48523e-05
0.000157974
-0.000133122
9.90239e-05
-0.00011616
0.000192029
0.00105598
-0.00124801
0.000536924
-1.76158e-05
-0.000519308
0.00086207
-6.48016e-05
-0.000797268
0.000682948
0.000969527
-0.00165247
3.16441e-06
-1.92243e-06
-1.24197e-06
4.36201e-06
0.000145643
-0.000150005
6.58672e-05
6.20476e-05
-0.000127915
0.000704728
-0.000664199
-4.05294e-05
-0.000158307
-1.43297e-05
0.000172636
0.000916395
0.000628846
-0.00154524
-2.17738e-05
0.000333399
-0.000311625
9.9057e-05
-0.000103396
4.33896e-06
-1.92712e-06
-1.58308e-05
1.7758e-05
0.000268304
-0.000993626
0.000725322
0.000276925
0.000172272
-0.000449197
-3.49512e-06
3.49512e-06
0.000103859
-1.78124e-05
0.00171647
-0.000918949
-0.000797524
3.38312e-06
1.47033e-06
-4.85345e-06
-1.34376e-05
0.000133122
-0.000119684
1.53967e-05
-1.12587e-06
-1.42709e-05
5.93392e-05
4.53059e-05
-0.000104645
-4.02879e-05
2.8011e-05
1.22769e-05
-8.05113e-06
1.11001e-05
-3.04893e-06
0.000884445
0.000477443
-0.00136189
4.91882e-06
-4.91882e-06
-0.000895947
0.00171135
-0.000815401
1.32465e-05
-1.44843e-05
1.23787e-06
0.000801819
0.000837586
-0.00163941
2.46011e-05
4.85263e-05
-7.31273e-05
1.45574e-05
-5.53493e-08
-1.45021e-05
0.000887833
-3.60613e-05
-0.000851772
0.000559837
-8.84347e-06
-0.000550994
0.000356002
0.000899502
-0.0012555
-2.61704e-05
0.000124206
-9.8036e-05
-0.000125737
0.000141964
-1.6227e-05
4.82697e-05
4.03644e-05
-8.86341e-05
-5.04733e-05
3.9492e-05
1.09813e-05
0.000729
-0.000707475
-2.15248e-05
0.000870451
0.000681405
-0.00155186
0.000122085
-0.000117723
0.000360051
0.000219665
-0.000579716
0.000378356
-0.00108273
0.000704373
3.33271e-05
1.02441e-06
-3.43515e-05
1.335e-05
-2.6644e-05
-1.02687e-05
1.06998e-05
-4.31081e-07
2.60214e-05
9.33933e-06
-3.53608e-05
1.54836e-05
0.000310629
-0.000326112
-4.83829e-05
7.99237e-06
4.03905e-05
3.34604e-05
8.26089e-05
-0.000116069
1.61789e-05
6.31039e-05
-7.92828e-05
5.09277e-05
5.57434e-06
-5.65021e-05
-8.37686e-05
0.000292804
-0.000209035
0.00170139
-0.000853999
-0.000847395
3.51225e-05
3.92476e-05
-7.43702e-05
-1.41925e-05
4.20507e-05
-2.78583e-05
5.27802e-06
2.22506e-05
-2.75287e-05
-0.000103444
0.000119623
3.53533e-05
-3.28952e-05
-2.45811e-06
7.9747e-05
-4.29915e-05
-3.67555e-05
-4.52804e-06
1.48445e-05
-1.03164e-05
-7.41658e-06
-2.04437e-05
2.78602e-05
-1.02364e-07
-2.94037e-05
2.95061e-05
0.000863837
0.000544669
-0.00140851
9.96831e-07
0.000119684
-0.000120681
-7.11021e-06
-5.09515e-05
5.80617e-05
2.88842e-05
-5.2946e-06
-2.35896e-05
-6.65285e-05
5.72814e-05
9.24714e-06
-0.000220558
0.000136789
-0.000903871
0.00169887
-0.000794995
6.50452e-05
-2.99226e-05
0.000572519
-7.73693e-07
-0.000571745
0.000483668
0.000738081
-0.00122175
2.64293e-05
2.45496e-06
-2.03725e-05
2.72352e-05
-6.86267e-06
-3.70451e-06
6.99434e-05
-6.62389e-05
8.68463e-06
2.18556e-05
-3.05403e-05
0.000862016
0.000755941
-0.00161796
4.61695e-07
-4.74175e-09
-4.56953e-07
-1.2719e-05
1.19912e-05
7.27779e-07
8.42944e-06
2.49919e-05
-3.34214e-05
5.42003e-06
-5.42003e-06
-8.04173e-05
4.14419e-05
3.89754e-05
-1.03232e-05
2.23949e-07
1.00993e-05
5.32849e-05
-9.20382e-05
3.87533e-05
0.000876801
2.34326e-06
-0.000879144
3.54057e-06
-1.08304e-07
-3.43226e-06
-4.18102e-06
4.18102e-06
6.50968e-05
3.46194e-06
-6.85588e-05
-5.13669e-07
1.96252e-06
-1.44885e-06
-2.60815e-05
3.06762e-06
2.30139e-05
-2.54515e-05
2.30373e-05
2.41426e-06
0.000737545
0.00079302
-0.00153057
5.42003e-06
-5.52239e-06
-2.71325e-05
0.000743537
-0.00074065
-2.8864e-06
-1.15388e-05
2.54869e-06
8.99013e-06
0.000525546
-0.00112298
0.000597432
6.79542e-06
-6.79542e-06
4.98584e-05
0.000310835
-0.000360693
0.00169704
-0.000727377
-0.000969665
0.000150534
-0.000117073
-0.000125939
-5.38657e-07
0.000126478
-1.42427e-06
1.63424e-06
-2.09965e-07
0.000376063