/*--------------------------------*- C++ -*----------------------------------*\
  =========                 |
  \\      /  F ield         | OpenFOAM: The Open Source CFD Toolbox
   \\    /   O peration     | Website:  https://openfoam.org
    \\  /    A nd           | Version:  8
     \\/     M anipulation  |
\*---------------------------------------------------------------------------*/
FoamFile
{
    version     2.0;
    format      ascii;
    class       volVectorField;
    location    "0.750";
    object      U;
}
// * * * * * * * * * * * * * * * * * * * * * * * * * * * * * * * * * * * * * //

dimensions      [0 1 -1 0 0 0 0];

internalField   nonuniform List<vector> 
16200
(
(0.78712 0.680418 7.52216e-22)
(0.535061 0.392256 1.60836e-20)
(0.723454 0.613236 0)
(0.712378 0.329733 -1.81206e-20)
(0.92915 0.777137 -8.80469e-21)
(0.912975 0.793675 0)
(1.11537 0.839077 -5.52043e-20)
(1.15798 0.57224 0)
(1.28591 0.913589 -1.95753e-20)
(0.893322 0.147323 2.44791e-20)
(1.1855 0.970268 1.08736e-20)
(1.3443 0.751447 1.51591e-20)
(1.56028 -0.190071 -3.84255e-20)
(1.20187 -0.0517283 0)
(1.30085 0.996527 -1.07968e-20)
(1.4518 0.435962 0)
(1.53586 0.625069 -8.78187e-21)
(1.35844 0.937344 9.68005e-21)
(1.19819 0.972198 0)
(1.61768 0.490053 0)
(1.54754 0.24169 -1.54609e-21)
(1.31432 0.970944 0)
(1.10899 0.854163 2.11652e-21)
(1.46666 0.650918 -1.12685e-22)
(1.65089 0.106073 -2.98923e-22)
(1.422 0.919399 7.5262e-21)
(1.71397 -0.0165278 -6.81583e-21)
(1.6502 0.358501 -2.01328e-21)
(1.27817 0.134184 -2.8447e-21)
(1.66174 -0.30797 1.84579e-20)
(1.69469 0.0647673 0)
(1.33993 0.926784 -2.70523e-21)
(1.70155 -0.194295 3.98551e-21)
(1.24537 0.31439 6.26947e-22)
(1.7289 -0.408341 1.2654e-20)
(1.41994 0.580992 -6.89232e-22)
(1.10332 0.461151 0)
(1.19755 0.578238 0)
(0.892979 0.212901 6.64638e-22)
(0.98439 0.184896 0)
(1.30584 0.0862319 4.98725e-21)
(1.73659 -0.434541 4.87532e-22)
(1.28679 0.699956 0)
(0.81535 0.11139 0)
(1.40878 0.0144652 -9.06591e-21)
(1.08908 0.13347 3.14502e-21)
(0.861824 0.0400098 0)
(1.52 -0.135035 0)
(0.970007 0.0407971 9.89691e-22)
(0.786063 0.585862 -2.84459e-21)
(1.61778 -0.292375 -1.87103e-21)
(0.909795 0.656823 -4.53626e-23)
(0.909782 0.210965 -5.38828e-23)
(0.427017 0.23268 -1.20676e-20)
(1.69938 -0.559987 0)
(0.819722 0.347636 7.5184e-22)
(0.646752 0.487671 -3.35842e-21)
(0.918267 -0.00186026 5.15885e-21)
(1.72693 -0.666534 4.60471e-20)
(1.63448 -0.417256 -1.2475e-21)
(0.463336 0.119937 -5.7769e-21)
(0.454154 -0.0525479 0)
(0.721485 0.382956 -1.20902e-21)
(0.462605 0.174075 0)
(1.62312 -0.684427 -4.03831e-21)
(0.386871 0.0572785 -2.0102e-21)
(0.560927 0.0400413 2.71723e-20)
(0.386359 0.113472 7.64138e-21)
(1.46158 -0.580841 -4.11339e-20)
(0.552428 0.0134534 3.714e-28)
(0.592602 -0.210526 0)
(1.02522 -0.359066 0)
(0.750295 0.104807 -1.21213e-22)
(0.505053 0.247527 -1.03939e-20)
(0.731069 0.134136 1.78454e-22)
(0.745117 -0.147772 -2.36029e-21)
(0.73458 -0.00512142 8.51783e-23)
(0.974898 -0.472497 0)
(0.527204 -0.0205832 1.32354e-22)
(1.55562 -0.774701 0)
(1.42639 -0.646368 -4.67868e-21)
(1.37711 -0.209336 0)
(1.20933 0.019443 1.10206e-22)
(0.540908 0.0823597 8.58378e-23)
(1.16338 -0.177832 -6.67876e-21)
(1.25251 -0.633004 -6.08811e-21)
(0.751973 -0.0218414 0)
(1.47714 -0.366939 -1.07238e-21)
(1.29115 -0.0726814 0)
(1.05513 0.008172 6.76499e-21)
(1.72633 -0.80809 5.52738e-22)
(0.59281 -0.283001 1.18182e-21)
(1.59219 -0.621264 -4.3525e-21)
(1.18117 -0.670101 1.55878e-20)
(1.69963 -0.8429 1.73967e-20)
(1.57936 -0.519681 7.34863e-21)
(1.66906 -0.731064 1.05932e-20)
(1.63901 -0.821311 5.01194e-22)
(1.35297 -0.743211 0)
(0.773113 -0.0246158 2.50227e-23)
(1.0501 -0.322061 5.76823e-21)
(1.72004 -0.810873 -1.49672e-20)
(0.514195 -0.0128567 1.59446e-22)
(0.524231 -0.0107575 0)
(0.702059 -0.414446 8.19189e-22)
(0.382069 0.0548281 0)
(1.69927 -0.811706 -3.10677e-22)
(0.474618 0.0555564 6.72491e-22)
(1.2708 -0.678942 -8.46748e-21)
(0.453713 0.0735088 -8.89169e-22)
(1.61455 -0.834009 -2.21963e-20)
(1.59636 -0.798648 -3.02596e-20)
(1.27915 -0.761755 1.4971e-20)
(0.76272 -0.0345098 0)
(0.913244 -0.429732 0)
(0.496798 -0.0143452 5.35014e-21)
(1.74409 -0.683193 -2.78474e-20)
(1.72512 -0.625226 0)
(0.397885 -0.0381997 -1.79029e-20)
(0.818674 -0.468254 0)
(1.35871 -0.619724 -2.5878e-21)
(0.440893 0.0271917 0)
(1.60283 -0.751509 -2.91168e-20)
(0.440275 0.0140119 6.70923e-21)
(1.64845 -0.734776 -2.12891e-20)
(0.74028 -0.0483787 0)
(1.19796 -0.694587 -2.47979e-20)
(0.771912 -0.475698 -8.66075e-21)
(0.47167 -0.0181669 8.25871e-23)
(1.76587 -0.452004 1.24876e-20)
(1.75351 -0.345875 -1.92205e-22)
(1.43798 -0.489664 0)
(0.455865 -0.110338 0)
(0.936577 -0.45642 -9.07314e-22)
(0.43935 0.000237675 5.17392e-21)
(1.61915 -0.516244 -3.20775e-20)
(0.464966 -0.0370053 0)
(1.68818 -0.560194 1.52315e-20)
(1.13282 -0.505297 -3.9696e-20)
(0.695951 -0.0672613 3.97028e-21)
(0.634858 -0.45188 0)
(1.77734 -0.170964 -1.23278e-20)
(0.436979 -0.0237645 -4.4168e-21)
(1.04611 -0.385332 -2.22635e-23)
(1.76088 0.00331755 2.98359e-20)
(0.544749 -0.153667 -4.63705e-21)
(1.4802 -0.291643 -1.43763e-24)
(0.461399 -0.0216581 -4.58163e-21)
(1.63647 -0.183336 1.32941e-22)
(1.70588 -0.307949 -6.11649e-21)
(0.517366 -0.0731884 0)
(1.09419 -0.185486 -4.40109e-20)
(0.51748 -0.355177 -3.66262e-20)
(0.622679 -0.0892751 1.63689e-21)
(1.76091 0.124806 -1.16464e-20)
(0.390958 -0.0288644 1.44421e-21)
(0.500626 -0.0360695 -1.79057e-21)
(0.64728 -0.163941 6.33176e-24)
(1.48171 -0.0643815 4.31165e-21)
(1.13721 -0.271116 2.18518e-23)
(1.73384 0.353426 -2.69687e-20)
(1.70214 -0.0388913 9.78358e-21)
(0.58605 -0.0899022 9.48725e-22)
(1.62904 0.206847 -6.55395e-23)
(1.09172 0.195284 0)
(0.4289 -0.194575 0)
(0.529392 -0.101069 2.18696e-23)
(0.333295 -0.0322272 0)
(1.71789 0.41708 -1.12599e-20)
(0.548121 -0.0420339 -3.238e-22)
(0.744899 -0.14562 -1.5071e-21)
(1.69647 0.60821 -4.60532e-20)
(1.19491 -0.138331 7.00043e-21)
(1.45057 0.16807 3.91261e-21)
(0.657464 -0.0884966 2.53911e-22)
(1.60501 0.523115 -3.0753e-20)
(1.67314 0.241836 -4.94147e-21)
(1.12837 0.507897 3.81596e-20)
(0.393292 0.00893986 2.50838e-20)
(0.435403 -0.093739 5.5048e-21)
(1.66915 0.638491 -1.24195e-20)
(0.267184 -0.0327204 4.9878e-21)
(1.20152 0.0077247 0)
(0.824182 -0.108709 3.73976e-21)
(1.66711 0.759008 -1.94442e-20)
(0.594475 -0.0396624 3.50639e-24)
(1.3936 0.392373 -1.91041e-21)
(1.62366 0.4955 -5.25255e-25)
(0.719984 -0.0721905 3.42414e-21)
(1.58252 0.715171 2.75245e-20)
(0.358502 -0.0656218 -1.03944e-20)
(1.18939 0.681183 2.38462e-20)
(0.421953 0.205026 0)
(0.203014 -0.0263925 -6.73163e-21)
(1.63005 0.781561 1.43645e-20)
(1.65968 0.824858 1.05746e-24)
(1.15582 0.167751 0)
(1.3217 0.575829 1.7701e-22)
(0.877807 -0.0643572 -5.7593e-21)
(0.631468 -0.0307536 3.85163e-21)
(1.58046 0.800515 0)
(1.57331 0.682283 -9.23891e-21)
(0.766857 -0.0489656 -4.83156e-21)
(1.26013 0.734227 1.91068e-20)
(0.510204 0.350117 1.57735e-20)
(0.312397 -0.020603 1.14356e-20)
(1.61473 0.850346 -1.58486e-20)
(0.154879 -0.0112553 0)
(1.06766 0.322384 0)
(1.24125 0.699139 8.176e-21)
(1.67505 0.827063 -3.18052e-20)
(0.905538 -0.0185317 1.4508e-24)
(0.65607 -0.0179997 -4.40632e-21)
(1.52944 0.803305 0)
(1.60088 0.810227 0)
(0.795808 -0.0230797 0)
(1.33736 0.707248 1.08781e-20)
(0.639448 0.425819 -3.76678e-25)
(0.306712 0.0292518 0)
(0.13303 0.00685126 -1.49173e-23)
(1.6054 0.858214 -6.43533e-20)
(0.667095 -0.00387837 0)
(1.15534 0.754502 1.64607e-20)
(1.72401 0.74918 3.3015e-20)
(0.91094 0.0243811 0)
(0.95482 0.445066 -6.45776e-23)
(1.65605 0.751368 1.27117e-20)
(0.805419 0.00459505 0)
(1.49966 0.848783 0)
(1.42516 0.615426 -5.00701e-21)
(0.788359 0.42648 1.55291e-25)
(0.343888 0.0699534 1.0469e-20)
(1.62993 0.75167 8.44734e-20)
(0.141236 0.0227884 -9.62215e-21)
(0.82995 0.5127 0)
(0.889826 0.0696048 0)
(1.77495 0.560603 -1.75167e-20)
(1.06307 0.724353 2.66565e-20)
(0.663055 0.0102309 0)
(0.797627 0.0312205 0)
(1.47139 0.83251 0)
(1.72362 0.623773 2.16618e-20)
(1.52364 0.497305 -1.34632e-21)
(0.41507 0.0907343 -7.4554e-21)
(0.935815 0.366889 0)
(1.66909 0.489039 0)
(0.175329 0.0308425 3.04372e-26)
(0.697566 0.512459 -2.80066e-25)
(0.644268 0.0231889 -4.87088e-21)
(1.80831 0.276103 3.75131e-20)
(0.834721 0.118013 0)
(0.963382 0.589253 -2.22751e-24)
(1.77404 0.399468 -2.07975e-20)
(1.46718 0.659432 -7.36965e-20)
(0.771966 0.0563785 -4.22204e-21)
(0.4998 0.0925963 -2.26386e-26)
(1.59346 0.339654 -8.70176e-22)
(1.05969 0.28124 -5.44105e-21)
(0.225963 0.0315573 0)
(1.69663 0.104143 3.87197e-20)
(0.612597 0.0341123 0)
(1.81181 -0.0562862 1.864e-20)
(0.570478 0.424491 0)
(0.746919 0.160309 0)
(0.89203 0.297564 -4.39316e-20)
(1.47799 0.3311 -4.30406e-20)
(1.78798 0.116234 3.24531e-22)
(0.724945 0.0804076 5.96598e-21)
(1.61151 0.127734 2.22773e-21)
(1.15578 0.206022 0)
(0.582177 0.0830159 0)
(1.67814 -0.320237 3.88929e-20)
(0.282325 0.0274004 -1.66551e-21)
(1.75768 -0.410485 1.86344e-20)
(0.869115 -0.0984552 4.42139e-20)
(0.569657 0.0425961 0)
(0.466487 0.265669 -2.62859e-20)
(0.637799 0.182655 0)
(1.75974 -0.192669 1.85784e-20)
(1.48203 -0.120552 8.84336e-22)
(0.657719 0.0973805 2.86827e-22)
(1.58502 -0.111339 3.19146e-21)
(0.652392 0.0679007 0)
(1.23192 0.143818 8.76496e-21)
(0.335779 0.0218219 0)
(1.63853 -0.661843 3.41701e-21)
(0.908317 -0.474219 4.14668e-20)
(0.414179 0.0489903 -2.84046e-20)
(0.518859 0.0469528 -7.06437e-22)
(0.525425 0.173667 -8.33514e-21)
(1.68435 -0.693925 1.6352e-20)
(1.47074 -0.53274 -3.97943e-20)
(0.579706 0.101854 9.41986e-22)
(1.69252 -0.498662 -3.79769e-23)
(1.51739 -0.357201 -3.3387e-21)
(1.26494 0.0609183 9.5604e-21)
(0.707436 0.0510039 0)
(1.6006 -0.862167 -2.45458e-20)
(0.381368 0.0157139 5.34453e-21)
(1.62029 -0.874625 3.13979e-20)
(0.995133 -0.718046 2.72816e-20)
(0.466438 0.0453069 1.69669e-26)
(0.431005 0.129837 0)
(0.434372 -0.189697 0)
(1.61268 -0.733209 -9.91153e-21)
(0.505243 0.0874648 -5.68098e-26)
(1.46109 -0.798645 3.53753e-20)
(1.42192 -0.576291 0)
(1.23451 -0.0599906 0)
(0.748039 0.034124 -7.42608e-21)
(0.416732 0.0101838 5.27036e-26)
(1.5864 -0.95813 0)
(0.422257 0.0347982 -4.68826e-21)
(0.523584 -0.398969 1.99154e-20)
(0.373298 0.0579641 -2.36721e-25)
(1.0963 -0.816249 -2.6092e-24)
(1.58086 -0.980204 0)
(0.450339 0.0541123 -8.37325e-26)
(1.46605 -0.920625 -2.63628e-20)
(1.54074 -0.892422 2.35514e-20)
(0.774577 0.0171281 0)
(1.15151 -0.201843 0)
(1.31494 -0.742161 -2.58111e-21)
(0.441552 0.0053816 7.83759e-21)
(1.59532 -0.979251 5.38577e-20)
(0.395993 0.016453 -5.59263e-21)
(1.56226 -1.00834 1.97072e-20)
(0.654809 -0.535121 0)
(1.2021 -0.82342 8.98018e-21)
(0.363599 -0.0261212 9.45664e-21)
(1.48752 -0.979093 1.50283e-20)
(1.49329 -0.952812 2.23038e-24)
(0.428172 0.0094771 -6.88715e-21)
(0.78649 -0.00141291 -9.3513e-21)
(1.20334 -0.843957 0)
(1.02802 -0.33417 7.15116e-21)
(0.455844 0.000749928 6.964e-26)
(1.64568 -0.930129 0)
(1.31367 -0.745653 -5.85322e-21)
(0.798801 -0.580085 3.02689e-25)
(1.56997 -0.970934 4.20126e-21)
(0.405362 -0.106154 -1.53771e-20)
(0.392965 -0.00529108 0)
(1.55448 -0.909874 1.40975e-20)
(1.44757 -0.992662 2.20027e-20)
(0.443503 -0.0384914 -6.60637e-21)
(1.09017 -0.862003 0)
(0.877428 -0.43541 -5.35738e-21)
(0.782779 -0.0208052 2.95104e-25)
(1.71567 -0.774801 3.63882e-20)
(0.459092 -0.0044854 0)
(1.61406 -0.751867 3.31876e-20)
(0.415289 -0.0264406 -4.0086e-21)
(1.43532 -0.618174 1.40503e-21)
(0.491911 -0.167461 -5.55134e-21)
(0.947847 -0.541279 0)
(1.42146 -0.904591 -3.75341e-20)
(1.64478 -0.800729 -1.16798e-20)
(0.491999 -0.0807217 5.0518e-21)
(0.758752 -0.0418911 -9.08161e-21)
(0.96486 -0.78214 -3.25883e-20)
(0.714041 -0.483258 -2.55682e-21)
(0.450574 -0.0114284 -8.69901e-21)
(1.78035 -0.491483 -6.02282e-20)
(1.0915 -0.434298 -5.71148e-25)
(0.45953 -0.0430686 -1.78631e-21)
(1.66426 -0.380402 4.05541e-20)
(1.54637 -0.464461 8.91401e-22)
(0.608591 -0.195884 -2.01483e-21)
(1.4283 -0.616209 0)
(1.72614 -0.592091 1.82391e-24)
(0.564862 -0.106608 0)
(0.857913 -0.557075 0)
(0.706291 -0.0676826 2.20578e-25)
(0.554019 -0.460553 9.37701e-21)
(0.428793 -0.0185711 -8.15e-21)
(1.81411 -0.135295 6.5968e-24)
(1.68653 0.0866096 4.2935e-20)
(1.21464 -0.316458 0)
(0.732134 -0.189067 -3.03652e-21)
(1.60118 -0.239861 -1.86119e-21)
(0.516999 -0.0523966 7.73629e-22)
(1.44673 -0.174756 0)
(0.648418 -0.112735 -3.13583e-22)
(1.78151 -0.288365 1.12652e-20)
(0.80034 -0.174263 4.76837e-20)
(0.419742 -0.356083 0)
(0.626009 -0.0906887 1.51589e-21)
(0.39179 -0.024513 -5.15541e-21)
(1.81068 0.247004 -6.49001e-24)
(1.60628 0.0255132 -2.28668e-21)
(1.66674 0.505215 -4.10322e-20)
(0.577114 -0.0532519 1.22986e-21)
(0.840008 -0.158527 5.51148e-21)
(1.31177 -0.21997 7.34768e-21)
(1.45691 0.319336 0)
(0.72756 -0.102248 4.31044e-21)
(1.79068 0.0487546 1.13714e-20)
(0.530884 -0.100268 0)
(0.812202 0.251078 -9.07016e-20)
(0.328395 -0.187218 2.82743e-24)
(0.339015 -0.0294043 0)
(1.75606 0.588014 3.89292e-20)
(1.3588 -0.0836859 0)
(0.920649 -0.119883 -6.43091e-21)
(1.57001 0.296755 0)
(0.631057 -0.0474826 -4.2979e-21)
(1.63732 0.767733 0)
(1.75699 0.384408 1.15044e-20)
(0.79275 -0.0832897 0)
(1.45952 0.672208 0)
(0.893483 0.57271 3.38316e-20)
(0.297641 0.0183053 0)
(0.438831 -0.092024 -1.62462e-21)
(0.277265 -0.0312187 0)
(1.702 0.798783 1.85647e-20)
(0.674574 -0.0377587 7.21415e-22)
(1.33956 0.0940023 0)
(1.50311 0.538606 -1.25826e-21)
(0.97447 -0.0803741 0)
(1.62208 0.891073 -4.88157e-20)
(1.69777 0.65739 1.1693e-20)
(0.842133 -0.0623561 7.06433e-21)
(1.46993 0.844792 -3.24193e-20)
(0.364572 -0.0640184 -3.97522e-25)
(0.336924 0.207972 -2.67958e-24)
(1.00577 0.729764 0)
(0.215794 -0.0261185 4.19866e-21)
(1.66745 0.908862 -3.73747e-20)
(0.706983 -0.0263443 2.30636e-25)
(1.62645 0.919103 -1.97836e-20)
(1.26768 0.280748 -7.45403e-21)
(1.00899 -0.0416904 -8.79112e-21)
(1.42426 0.718449 5.87826e-21)
(1.49554 0.894435 0)
(0.875105 -0.0391387 -8.54924e-21)
(1.64057 0.828829 1.34724e-21)
(0.435878 0.338451 0)
(1.11989 0.766649 -3.91393e-24)
(0.320388 -0.0217797 -7.25231e-21)
(1.65506 0.934709 -6.0104e-20)
(0.168541 -0.0123611 -5.47384e-21)
(1.0298 -0.00580695 -9.24574e-21)
(1.16288 0.447229 0)
(0.726974 -0.014164 -8.50625e-21)
(1.66176 0.855984 0)
(1.33497 0.759748 3.12257e-21)
(1.60393 0.916674 -2.59134e-21)
(0.891523 -0.0134768 -8.92051e-21)
(1.53994 0.858456 -2.61193e-20)
(0.313776 0.0234501 0)
(0.57361 0.402119 0)
(1.23022 0.719356 -7.72403e-21)
(0.145713 0.00439943 -6.93244e-21)
(1.67658 0.895245 -4.65986e-20)
(1.72244 0.713863 0)
(0.732619 -0.000887075 8.62844e-21)
(1.02649 0.0407702 9.16218e-21)
(1.03983 0.570282 2.8293e-25)
(1.60119 0.740955 0)
(1.24753 0.836973 1.28311e-20)
(0.894722 0.0131324 -5.34817e-25)
(1.58389 0.935168 2.10246e-20)
(1.33757 0.597768 -1.16291e-21)
(0.346459 0.0600548 -4.19806e-25)
(0.728702 0.398231 4.32636e-25)
(0.15087 0.0188057 2.03214e-25)
(1.73022 0.69268 -5.58256e-20)
(0.903166 0.635694 9.31811e-21)
(0.976699 0.107576 -7.66713e-21)
(0.722907 0.0135356 -8.25263e-21)
(1.77577 0.462407 1.19726e-20)
(0.880925 0.0419256 -5.02746e-25)
(1.59464 0.855896 4.55337e-21)
(1.16101 0.829531 -2.26313e-20)
(1.67478 0.555785 1.15265e-20)
(0.410285 0.0787874 -4.06024e-21)
(1.42961 0.436617 4.15303e-21)
(0.878641 0.338379 3.00285e-21)
(1.77899 0.332705 -3.21118e-20)
(0.179625 0.025974 -4.89252e-21)
(1.64052 0.570215 -1.68785e-23)
(0.88054 0.179813 0)
(0.697698 0.0280012 7.29583e-21)
(0.757349 0.613627 -1.3677e-20)
(0.837058 0.078713 -7.54772e-21)
(1.7873 0.128498 -1.16158e-20)
(1.07097 0.688433 0)
(1.48798 0.25809 1.0882e-20)
(1.00259 0.254067 -6.44545e-21)
(0.486288 0.0803969 -7.94722e-22)
(1.78308 -0.1016 7.01653e-22)
(1.71426 0.293114 3.76584e-21)
(0.222803 0.0265366 -2.21652e-21)
(1.68124 0.123613 0)
(0.654341 0.0431031 0)
(0.752891 0.235477 -2.14869e-21)
(0.617783 0.486572 0)
(1.75444 -0.220174 1.05225e-20)
(0.758376 0.116495 1.3109e-21)
(1.01336 0.356992 -4.63397e-20)
(1.09454 0.175125 0)
(1.4921 0.0411261 0)
(1.73989 -0.510055 -4.42662e-21)
(0.559861 0.070676 2.41114e-21)
(1.70075 -0.0149348 -2.94804e-21)
(1.67253 -0.348769 8.25666e-20)
(0.270536 0.022514 9.72941e-26)
(0.513508 0.262654 0)
(1.34991 -0.358322 -9.66016e-20)
(0.610692 0.257885 0)
(0.591807 0.0584064 3.07516e-21)
(0.654577 0.143839 -1.72262e-21)
(1.6847 -0.554109 -1.52226e-22)
(0.62144 0.0547009 0)
(1.43956 -0.203666 0)
(1.15336 0.101993 0)
(1.6875 -0.785863 5.0611e-20)
(0.314822 0.0167693 -3.58694e-21)
(1.64649 -0.335096 0)
(1.63939 -0.706212 0)
(1.35762 -0.7218 -4.20084e-20)
(0.495089 -0.0323822 0)
(0.47558 0.235809 6.85177e-21)
(0.514674 0.0677584 1.64497e-21)
(1.60526 -0.790003 -1.29746e-20)
(0.542099 0.148428 2.43154e-21)
(1.34481 -0.434317 -1.77517e-24)
(1.16229 0.0143283 -1.0174e-20)
(0.667541 0.0364945 7.81266e-21)
(1.63852 -0.943863 0)
(1.56199 -0.610219 -4.4578e-21)
(0.350686 0.0102369 -5.86052e-21)
(1.61273 -0.905217 2.94905e-20)
(1.39077 -0.900968 -5.87656e-20)
(0.435345 0.0653704 0)
(0.575784 -0.324441 1.31479e-23)
(0.371979 0.168864 -1.95283e-24)
(0.440878 0.124701 5.15915e-25)
(1.53468 -0.948989 1.77929e-20)
(1.22649 -0.619196 1.01238e-21)
(1.11872 -0.0947382 0)
(1.62638 -1.0252 -1.79086e-22)
(0.698378 0.0186483 0)
(1.6096 -0.99288 -4.52488e-20)
(0.37566 0.00463507 0)
(1.4709 -0.807625 0)
(0.319367 0.069603 0)
(1.4482 -0.956928 -2.28544e-20)
(0.720734 -0.534196 0)
(0.370095 0.0494029 0)
(1.48539 -1.04046 4.10375e-20)
(0.370632 0.0759887 -8.10704e-25)
(1.05961 -1.14562 0)
(1.65489 -1.04528 2.09716e-20)
(1.06291 -1.08344 3.38523e-20)
(0.715538 0.00255647 9.06125e-21)
(1.02716 -0.211125 4.20853e-24)
(1.09353 -0.745905 0)
(1.38195 -0.945579 1.08799e-20)
(1.63335 -1.00558 1.90592e-20)
(0.389717 -4.5331e-05 0)
(0.949593 -1.06432 3.83572e-20)
(0.87806 -0.635893 0)
(0.332884 0.0238077 6.11243e-21)
(1.52491 -0.941253 0)
(0.325357 -0.0400071 1.21452e-20)
(1.44961 -1.06255 0)
(0.345072 0.0132682 8.47078e-21)
(0.946165 -0.805047 0)
(1.72102 -0.972941 0)
(0.89755 -0.310347 1.2831e-20)
(0.721149 -0.0113658 9.08211e-21)
(1.11345 -1.15802 -6.41267e-20)
(1.30082 -1.01382 -1.89756e-20)
(1.71199 -0.953302 3.48538e-22)
(0.393801 -0.00417054 -8.951e-21)
(1.63117 -0.848985 1.33883e-20)
(1.00359 -1.14714 0)
(0.33053 -0.00616189 1.24753e-20)
(1.03409 -0.647226 0)
(0.388278 -0.138954 -1.82194e-24)
(1.03172 -1.14665 -1.22747e-20)
(0.929409 -1.1218 0)
(1.4277 -0.98362 -3.97618e-20)
(0.366511 -0.0495359 1.56859e-24)
(0.715309 -0.02361 -8.8655e-21)
(0.744172 -0.370304 0)
(0.791806 -0.756534 0)
(0.905901 -1.09445 9.30051e-21)
(0.851871 -1.0773 -2.91877e-21)
(1.79972 -0.742045 -7.00338e-20)
(0.86795 -1.08897 -7.6042e-22)
(0.389173 -0.00887708 8.52537e-21)
(1.21239 -0.994545 3.08969e-20)
(0.890129 -1.10492 3.41454e-20)
(1.81454 -0.805381 2.25981e-20)
(0.49723 -0.211156 -5.78156e-21)
(0.658603 -0.861118 -7.0692e-21)
(1.18702 -0.577672 0)
(0.359875 -0.0331848 -1.19494e-21)
(1.75473 -0.696798 1.28259e-20)
(0.429886 -0.101918 -5.33653e-21)
(0.740694 -0.933832 4.42679e-20)
(0.846987 -1.09309 -1.83766e-20)
(1.43189 -0.651816 0)
(1.85945 -0.338355 0)
(0.802093 -1.06612 -5.76866e-20)
(0.585166 -0.373609 0)
(0.637708 -0.593309 6.60012e-20)
(0.649714 -0.889598 2.36756e-20)
(0.397115 -0.54861 3.19659e-21)
(0.693132 -0.0367602 -7.86908e-21)
(1.90196 -0.502963 2.45386e-20)
(0.446577 -0.610035 0)
(0.375964 -0.0137817 -9.72541e-25)
(1.12678 -0.822413 5.34862e-20)
(1.32585 -0.452789 0)
(1.85643 -0.428321 1.34696e-20)
(0.415043 -0.0536175 3.24628e-21)
(0.63383 -0.240347 8.83393e-22)
(1.44556 -0.10578 -6.50957e-20)
(0.741635 -0.912276 -2.14171e-20)
(0.499615 -0.636354 0)
(0.523923 -0.131602 1.69656e-21)
(0.387008 -0.594555 -4.27787e-20)
(1.85415 0.138226 -4.07414e-20)
(0.650028 -0.0517796 -1.37519e-24)
(0.440904 -0.310235 -9.36027e-24)
(0.516821 -0.277488 0)
(0.0805268 -0.123214 -2.56915e-20)
(0.346148 -0.532709 0)
(0.337013 -0.528741 0)
(1.9356 -0.10431 -8.12313e-23)
(0.583886 -0.866372 3.70644e-20)
(0.843758 -1.00909 -6.06605e-20)
(0.354541 -0.017224 0)
(1.07085 -0.395884 -6.39771e-20)
(0.772827 -0.224836 5.66419e-21)
(0.485159 -0.0631133 -3.53926e-21)
(0.11937 -0.191439 2.0323e-20)
(1.89285 -0.0779117 1.36368e-20)
(1.43647 -0.328386 -7.07949e-21)
(0.09923 -0.159282 0)
(0.630137 -0.134894 -1.8919e-21)
(0.22259 -0.286087 -5.27662e-20)
(0.787156 -1.04846 9.24835e-20)
(0.216304 -0.261222 0)
(1.44199 0.464808 6.29161e-20)
(2.02128 1.31406 0)
(0.484302 0.130204 -9.55013e-23)
(0.336583 -0.181332 0)
(0.589071 -0.0623034 0)
(1.78803 0.602951 0)
(0.082244 -0.117307 0)
(0.0749351 -0.122421 -5.59975e-20)
(0.5328 -0.828614 0)
(0.3097 -0.50975 0)
(0.325914 -0.0180584 -4.90734e-21)
(0.502814 -0.638064 4.23204e-21)
(1.90689 0.326571 -5.13974e-20)
(1.0577 0.175934 -6.48252e-20)
(1.97103 1.243 -2.8543e-20)
(0.893297 -0.18087 7.19542e-21)
(0.706177 -1.02904 0)
(1.86249 0.282242 0)
(0.778906 -0.952234 2.15215e-20)
(2.04244 1.16389 7.75236e-20)
(1.50107 -0.168476 0)
(2.18329 1.22629 3.10497e-20)
(0.556887 -0.0604535 4.24942e-21)
(0.728559 -0.116437 -5.72732e-21)
(1.43536 0.832515 5.0975e-20)
(0.770576 -0.989083 2.6548e-20)
(1.95541 1.38207 -2.64435e-20)
(0.551967 0.4771 -7.21611e-20)
(0.650748 -0.989225 -5.44858e-20)
(0.290248 -0.0124224 3.26109e-23)
(1.71218 0.880375 2.84628e-20)
(0.487603 -0.795733 0)
(0.522486 -0.0599329 0)
(0.862493 -0.133066 -2.22652e-19)
(1.09455 0.65475 0)
(2.07011 1.33882 -6.78636e-20)
(1.8169 0.691308 -2.22359e-20)
(0.291183 -0.0170399 3.96211e-21)
(1.34876 -0.20785 -3.50507e-20)
(0.619201 -0.0488282 -7.1024e-21)
(1.50449 0.0342856 0)
(2.18952 1.26717 2.77305e-20)
(0.986209 -0.130979 -9.60344e-21)
(1.77971 0.591094 -1.23302e-20)
(1.44116 0.983521 -6.52753e-21)
(0.408934 -0.511106 -5.72622e-21)
(0.807741 -0.0877285 9.51055e-21)
(2.04136 1.31917 0)
(0.0963712 -0.116588 -3.23016e-20)
(0.229059 -0.279417 0)
(0.871141 -1.00825 -9.44689e-22)
(0.728014 -0.847765 -2.20894e-20)
(0.307561 0.158712 0)
(0.603358 -0.955738 -3.31841e-20)
(0.675655 -0.999623 -8.79878e-21)
(2.16422 1.27391 0)
(1.65703 1.0018 -2.53557e-20)
(0.466254 -0.0427565 2.3473e-21)
(1.85154 1.16895 8.32024e-20)
(0.688788 0.686646 -5.1735e-20)
(0.697495 -0.961594 0)
(1.16497 0.897386 -7.74846e-23)
(0.224444 -0.28105 0)
(1.72719 0.897454 2.05096e-20)
(0.255449 -0.013815 -2.77923e-25)
(1.92183 1.26749 -6.04716e-20)
(1.45218 0.247537 0)
(0.667008 -0.0337929 1.00181e-20)
(1.0553 -0.0876386 0)
(1.68461 0.796073 2.66972e-22)
(0.0916559 0.00831767 9.5854e-20)
(1.98165 1.35788 0)
(0.903499 -0.906028 -5.42016e-20)
(0.867106 -0.0607574 -1.0996e-20)
(2.24631 1.22477 0)
(1.46224 1.01569 6.85636e-20)
(0.430243 -0.0160031 0)
(1.95695 1.05731 2.53931e-20)
(0.297227 -0.0424207 0)
(0.841043 0.766418 0)
(0.385406 0.291485 -7.94442e-21)
(0.0690824 -0.115483 3.01564e-20)
(1.12117 -1.16305 -3.36832e-20)
(1.6301 1.0289 0)
(0.135244 -0.243925 2.84723e-22)
(0.226934 -0.00513682 -1.85863e-21)
(0.285782 -0.489451 2.13889e-20)
(0.831401 -0.896669 -5.79878e-20)
(0.593963 -0.0880414 1.28779e-19)
(0.209124 -0.0195847 0)
(1.24209 0.966283 2.80662e-20)
(0.0880324 -0.151463 -7.6487e-20)
(1.66319 0.997375 4.88155e-22)
(0.26356 -0.470132 -2.36367e-20)
(1.59981 0.920629 2.34513e-23)
(1.47488 0.982568 5.87444e-20)
(0.262271 -0.489556 4.56975e-20)
(1.10573 -0.0520507 0)
(0.701299 -0.0188353 -1.06502e-20)
(1.35806 0.438354 5.88723e-21)
(2.21759 1.13544 -4.84847e-20)
(2.1991 1.19185 3.45906e-20)
(0.763908 -0.881891 -5.09328e-20)
(1.35548 0.86805 3.93111e-20)
(0.909611 -0.0344454 -1.18741e-20)
(1.50859 0.951251 -3.12468e-20)
(1.85857 1.29988 0)
(0.509151 0.366649 -1.23455e-23)
(0.986908 0.74129 -4.08769e-21)
(0.4481 -0.763644 -3.73954e-20)
(0.503268 -0.0726765 0)
(0.139181 0.232651 2.0026e-21)
(1.09283 0.650601 0)
(0.422221 0.016112 3.67832e-21)
(0.589461 -0.874377 5.61227e-20)
(0.874455 -0.833276 -5.95522e-20)
(1.62821 0.942302 -1.05612e-19)
(1.17937 -0.14994 -1.24492e-19)
(2.29627 1.07544 7.19255e-20)
(1.64779 0.98259 3.95422e-20)
(0.64723 -0.903591 0)
(0.559517 -0.927408 -4.30028e-20)
(-0.0514703 0.397606 -9.07061e-21)
(1.94592 1.10793 8.41914e-20)
(0.523442 -0.897514 5.56444e-22)
(0.780716 -0.813991 -3.23001e-20)
(0.1679 0.304762 0)
(-0.18972 0.350168 4.73241e-21)
(0.832473 0.497955 6.98629e-20)
(1.32165 0.936404 1.62024e-20)
(0.214067 0.00549525 3.02024e-21)
(0.575243 -0.911887 5.84313e-20)
(-0.181667 0.409631 -8.93063e-21)
(1.50706 0.83088 0)
(2.3216 1.12446 -1.09683e-19)
(1.63233 1.01424 -2.13441e-20)
(0.633781 -0.931835 -1.06005e-21)
(0.721682 -0.00446918 1.14789e-20)
(1.23667 0.583554 0)
(-0.113364 0.416018 -4.52923e-21)
(0.449609 -0.79019 -7.43927e-20)
(1.68756 1.01192 0)
(0.635285 -0.0840704 -1.94007e-19)
(1.54077 0.9801 6.97047e-23)
(0.00437272 0.0207597 0)
(0.241523 -0.460372 -6.67721e-20)
(0.968562 0.673779 4.42079e-20)
(0.229633 0.125917 -1.27216e-19)
(0.698525 -0.860956 5.96425e-20)
(0.211205 -0.419788 4.06002e-20)
(0.685829 -0.793386 3.63534e-20)
(1.11623 0.00658559 -2.47885e-20)
(0.106447 -0.221669 0)
(0.0677199 -0.129158 0)
(1.45944 1.06285 4.41808e-20)
(-0.0635389 0.0354366 1.10835e-19)
(0.826863 0.446452 -1.6731e-19)
(0.79039 0.514401 -8.19723e-20)
(1.57294 0.796621 -8.14161e-21)
(0.361613 0.239789 0)
(0.670943 -0.829519 1.42016e-20)
(0.940041 -0.00901974 1.21112e-20)
(0.0331649 0.238173 0)
(1.12264 0.625585 1.98335e-21)
(0.261169 0.149366 0)
(0.446013 0.0446235 7.31387e-22)
(1.71739 0.854931 -4.3301e-20)
(0.912926 -0.813062 3.93785e-20)
(2.37514 1.11412 1.94409e-19)
(-0.0453686 0.0338585 1.15313e-19)
(0.662496 0.373198 -1.86478e-24)
(0.237476 0.141659 2.89016e-20)
(1.09988 0.68894 9.60643e-20)
(1.01867 0.712848 -1.22927e-19)
(1.80513 1.32934 1.56323e-20)
(0.458069 -0.824717 -1.66372e-20)
(0.409611 0.290724 8.18348e-20)
(1.51697 0.803012 -1.69411e-19)
(0.22108 0.0146821 5.72922e-21)
(1.64521 0.980333 -2.32765e-20)
(-0.18959 0.255629 0)
(1.4089 0.817496 3.42205e-23)
(0.387156 0.298069 -7.54369e-20)
(1.09719 0.678021 -2.16151e-24)
(1.50756 0.982918 -1.03574e-22)
(1.05919 0.0953565 1.20508e-20)
(0.174917 0.102785 -6.3078e-20)
(-0.0239654 0.0240924 0)
(0.727934 0.00987923 -2.3378e-20)
(1.82596 0.642503 -4.80236e-20)
(0.944226 0.704616 -2.11111e-23)
(0.395161 0.284682 0)
(0.313678 -0.619456 2.61156e-20)
(-0.0687364 0.0371363 0)
(0.42219 0.277214 9.56139e-20)
(1.66058 0.589319 1.32103e-20)
(-0.0957573 0.262663 0)
(0.340404 -0.646978 -2.60059e-20)
(0.946795 0.0214423 -1.19353e-20)
(0.412493 0.233513 8.4553e-20)
(0.218869 0.363373 9.77339e-21)
(0.0244436 0.362392 0)
(-0.0153933 0.0172737 0)
(0.0142961 0.0250238 8.98164e-20)
(0.0740023 0.00658913 2.45407e-22)
(0.970305 0.507265 0)
(0.778642 0.500588 -1.26083e-19)
(0.828496 0.6563 2.35508e-20)
(1.24789 0.447548 4.10695e-21)
(0.494673 0.0622953 6.75118e-25)
(0.781826 0.584062 -2.78645e-20)
(0.98041 0.0769081 -9.35755e-22)
(-0.032742 0.19987 0)
(0.822036 0.317193 0)
(0.962581 0.686131 9.12847e-20)
(1.90648 1.41436 5.50128e-20)
(0.414292 0.367503 2.73844e-20)
(0.245514 0.020532 0)
(1.5007 0.62437 1.37362e-21)
(0.0738445 0.411858 6.83098e-21)
(0.416472 0.311102 8.7407e-20)
(0.838555 -0.741772 1.21486e-19)
(0.863934 0.0771688 -2.07085e-21)
(1.51478 0.89797 3.53122e-20)
(1.92887 0.28593 2.97444e-20)
(0.947881 0.188609 0)
(0.942635 0.723358 0)
(1.43044 1.09147 -8.85578e-20)
(0.18329 0.227238 0)
(0.71873 0.0243198 0)
(0.405375 -0.776274 0)
(-0.00319197 0.0164947 -5.04548e-20)
(0.432179 -0.799439 4.89596e-20)
(0.907666 0.0683303 0)
(-0.166316 0.168493 0)
(1.75732 0.344129 0)
(0.501175 -0.875535 0)
(0.143356 0.168417 7.55914e-21)
(0.123097 -0.00247092 -2.46468e-20)
(-0.0619173 0.0412078 -3.15851e-20)
(0.305222 -0.0364547 9.05884e-20)
(0.127598 0.120939 0)
(0.00942235 0.0100925 1.11447e-19)
(0.662501 -0.760692 -2.41381e-20)
(0.835266 0.0113508 -7.83366e-21)
(0.544569 -0.804923 9.42692e-22)
(0.55645 0.067045 0)
(1.81057 1.40086 9.43978e-20)
(0.953899 0.218937 0)
(0.386536 -0.493383 -4.89652e-20)
(0.387898 -0.0306193 1.17992e-22)
(0.0991698 0.466038 6.98158e-21)
(0.230649 0.483743 0)
(0.469798 -0.845321 -2.58569e-21)
(0.243522 0.45008 0)
(0.281661 0.0216232 -7.79504e-22)
(0.690195 0.0607312 2.91654e-21)
(1.58213 0.401141 1.0257e-23)
(0.11105 0.156782 0)
(0.244897 -0.0187362 -3.23671e-20)
(0.723901 -0.0925539 1.67275e-19)
(-0.0734435 0.0392103 9.69234e-21)
(0.290188 0.461227 1.43236e-20)
(0.10251 0.103289 -1.02887e-20)
(0.604763 -0.786831 1.88919e-20)
(0.657848 -0.754911 0)
(0.600655 -0.717007 -8.77898e-21)
(-0.0888547 0.147795 4.93055e-21)
(0.685948 0.0407859 4.67625e-24)
(0.397182 -0.492054 -2.35528e-20)
(0.805428 0.261468 8.1343e-21)
(0.229062 0.292875 -2.64904e-21)
(1.55274 0.622767 2.12042e-22)
(1.96014 -0.138511 -6.01045e-20)
(1.35016 0.292423 6.08069e-21)
(0.145487 0.452347 7.1083e-21)
(0.774385 0.695349 -7.63575e-23)
(0.555183 -0.75309 0)
(0.818845 0.119184 8.66047e-24)
(0.203669 -0.00990708 1.11796e-22)
(0.176918 -0.371987 -5.0186e-20)
(1.19746 0.274164 2.57424e-23)
(0.294003 -0.601247 -6.46603e-22)
(0.632469 0.00800497 0)
(0.380835 -0.0463868 0)
(0.731146 -0.648319 -7.58075e-20)
(0.493212 -0.815065 -1.984e-20)
(0.618719 0.0610302 -3.41283e-24)
(1.19738 1.01489 0)
(1.63624 0.160404 0)
(1.8189 1.44389 -6.44198e-20)
(0.749837 0.614735 0)
(1.56881 -0.179126 -6.40457e-20)
(0.182354 0.413848 5.0381e-21)
(0.518181 -0.059708 -1.44254e-21)
(0.0400849 0.00485428 -1.07915e-19)
(1.04027 0.118358 0)
(0.664196 -0.68388 9.23393e-20)
(0.170743 0.167288 0)
(0.923025 0.117894 0)
(0.322004 0.0190779 -2.85476e-21)
(0.174715 -0.0217739 6.35682e-20)
(1.66085 1.3673 4.51127e-20)
(0.182473 -0.0142804 1.00739e-19)
(1.85206 1.40821 6.52431e-20)
(0.07167 0.13096 0)
(1.81418 0.0540407 -1.0809e-20)
(0.131259 -0.00403827 1.46404e-21)
(0.775372 0.100172 -1.58731e-21)
(0.0843964 0.00246312 0)
(0.530576 -0.0331975 -6.76862e-20)
(0.58599 -0.0267331 0)
(0.207904 0.0978708 1.45796e-19)
(0.3977 -0.0466677 -4.06206e-20)
(-0.0200114 0.4171 -1.63031e-20)
(0.273108 0.343256 0)
(1.07731 -0.128891 -1.14906e-19)
(0.637316 -0.0595023 0)
(0.651752 0.300236 0)
(0.378547 -0.751779 4.06186e-20)
(0.599113 0.554884 0)
(1.58922 0.137003 -6.02647e-20)
(1.38928 0.133332 0)
(2.11746 -0.26343 1.10474e-19)
(0.455079 0.0306363 2.06909e-21)
(0.198794 0.0934852 0)
(0.62505 0.0604442 0)
(0.876177 0.441141 0)
(0.520528 0.435375 7.10213e-20)
(1.95242 -0.330241 2.91109e-20)
(0.257547 0.131142 3.64702e-21)
(0.830919 -0.0885376 2.45281e-20)
(0.695537 0.160895 -5.64823e-24)
(1.28694 0.176112 7.75509e-21)
(0.884488 0.451234 0)
(0.26629 0.132763 1.68451e-19)