# Probe 0 (0.0433013 0.025 0)
# Time        0            
0             -0.981866    
0.000145068   -0.984526    
0.000290135   -0.987374    
0.000435175   -0.990976    
0.000580187   -0.996794    
0.000725198   -0.994874    
0.000870182   -0.997281    
0.00101514    -0.999352    
0.00116009    -1.00393     
0.00130502    -1.0052      
0.00144992    -1.00894     
0.00159482    -1.01348     
0.00173969    -1.01756     
0.00188456    -1.01769     
0.0020294     -1.02121     
0.00217422    -1.02303     
0.00231904    -1.02812     
0.00246382    -1.03        
0.00260861    -1.03396     
0.00275337    -1.03749     
0.00289813    -1.03821     
0.00304286    -1.04055     
0.00318759    -1.04252     
0.00333229    -1.04564     
0.003477      -1.05027     
0.00362167    -1.0515      
0.00376635    -1.05504     
0.00391099    -1.05783     
0.00405564    -1.05963     
0.00420026    -1.06401     
0.00434488    -1.06309     
0.0044895     -1.06464     
0.00463409    -1.06768     
0.00477868    -1.06862     
0.00492324    -1.07273     
0.0050678     -1.07237     
0.00521237    -1.07473     
0.0053569     -1.0774      
0.00550144    -1.07838     
0.00564597    -1.07884     
0.00579048    -1.08083     
0.00593498    -1.08303     
0.00607949    -1.08498     
0.00622397    -1.08714     
0.00636845    -1.08817     
0.00651293    -1.09152     
0.00665738    -1.09446     
0.00680183    -1.09242     
0.00694628    -1.0944      
0.00709073    -1.09346     
0.00723515    -1.09558     
0.00737957    -1.09847     
0.007524      -1.09807     
0.00766842    -1.10099     
0.00781284    -1.10239     
0.00795724    -1.1015      
0.00810163    -1.10395     
0.00824602    -1.10338     
0.00839042    -1.10497     
0.00853481    -1.10511     
0.00867921    -1.10641     
0.0088236     -1.10782     
0.00896797    -1.10774     
0.00911234    -1.10771     
0.0092567     -1.10911     
0.00940107    -1.11136     
0.00954543    -1.1128      
0.0096898     -1.1133      
0.00983417    -1.11214     
0.00997853    -1.11342     
0.0101229     -1.11315     
0.0102673     -1.11374     
0.0104116     -1.11571     
0.010556      -1.11168     
0.0107004     -1.11399     
0.0108447     -1.11414     
0.0109891     -1.11514     
0.0111335     -1.11599     
0.0112778     -1.11409     
0.0114222     -1.11572     
0.0115666     -1.11531     
0.0117109     -1.11691     
0.0118553     -1.11563     
0.0119997     -1.11543     
0.012144      -1.11496     
0.0122884     -1.11523     
0.0124328     -1.11514     
0.0125772     -1.11626     
0.0127215     -1.11549     
0.0128659     -1.11568     
0.0130103     -1.11531     
0.0131547     -1.11571     
0.0132991     -1.11578     
0.0134435     -1.11444     
0.0135879     -1.11431     
0.0137324     -1.1153      
0.0138768     -1.115       
0.0140212     -1.11166     
0.0141656     -1.10897     
0.0143101     -1.11081     
0.0144545     -1.11217     
0.014599      -1.11126     
0.0147434     -1.10985     
0.0148879     -1.10924     
0.0150324     -1.10797     
0.0151769     -1.10713     
0.0153214     -1.10951     
0.0154659     -1.1074      
0.0156104     -1.10678     
0.0157549     -1.10593     
0.0158994     -1.10489     
0.016044      -1.10425     
0.0161885     -1.10394     
0.0163331     -1.09805     
0.0164776     -1.10216     
0.0166222     -1.10158     
0.0167668     -1.0987      
0.0169114     -1.09908     
0.017056      -1.09722     
0.0172006     -1.09241     
0.0173452     -1.0966      
0.0174899     -1.09689     
0.0176345     -1.09526     
0.0177792     -1.08979     
0.0179239     -1.08756     
0.0180686     -1.08248     
0.0182133     -1.08749     
0.018358      -1.0862      
0.0185028     -1.08498     
0.0186475     -1.0875      
0.0187923     -1.0824      
0.018937      -1.08109     
0.0190818     -1.07979     
0.0192266     -1.07761     
0.0193714     -1.07746     
0.0195163     -1.07722     
0.0196611     -1.07632     
0.019806      -1.07658     
0.0199509     -1.07429     
0.0200958     -1.07139     
0.0202407     -1.06749     
0.0203856     -1.06685     
0.0205306     -1.06758     
0.0206756     -1.06582     
0.0208206     -1.06425     
0.0209656     -1.06258     
0.0211106     -1.06103     
0.0212556     -1.05939     
0.0214007     -1.05727     
0.0215458     -1.05705     
0.0216909     -1.05594     
0.021836      -1.05676     
0.0219811     -1.05052     
0.0221263     -1.04942     
0.0222715     -1.04678     
0.0224167     -1.04788     
0.0225619     -1.04607     
0.0227072     -1.04488     
0.0228524     -1.0428      
0.0229977     -1.04306     
0.023143      -1.04417     
0.0232884     -1.04174     
0.0234337     -1.03738     
0.0235791     -1.03544     
0.0237245     -1.03226     
0.0238699     -1.03074     
0.0240154     -1.02989     
0.0241608     -1.02891     
0.0243063     -1.02563     
0.0244518     -1.02512     
0.0245974     -1.02127     
0.024743      -1.0199      
0.0248886     -1.01765     
0.0250342     -1.01608     
0.0251798     -1.01588     
0.0253255     -1.01365     
0.0254712     -1.00753     
0.0256169     -1.01437     
0.0257627     -1.01427     
0.0259085     -1.01479     
0.0260543     -1.00769     
0.0262001     -1.01013     
0.026346      -1.00689     
0.0264919     -1.00312     
0.0266378     -1.00491     
0.0267838     -1.00335     
0.0269297     -1.0015      
0.0270758     -1.00151     
0.0272218     -1.00005     
0.0273679     -0.995398    
0.027514      -0.992921    
0.0276601     -0.990545    
0.0278063     -0.989246    
0.0279525     -0.986732    
0.0280987     -0.983264    
0.0282449     -0.980963    
0.0283912     -0.986479    
0.0285375     -0.986895    
0.0286839     -0.985295    
0.0288302     -0.98355     
0.0289766     -0.984812    
0.0291231     -0.981819    
0.0292696     -0.975056    
0.0294161     -0.973471    
0.0295627     -0.971356    
0.0297092     -0.96946     
0.0298559     -0.970817    
0.0300025     -0.969681    
0.0301492     -0.967123    
0.0302959     -0.96569     
0.0304427     -0.964675    
0.0305895     -0.96306     
0.0307363     -0.959764    
0.0308832     -0.957617    
0.0310301     -0.954842    
0.031177      -0.954941    
0.031324      -0.954894    
0.031471      -0.953308    
0.0316181     -0.952393    
0.0317652     -0.949683    
0.0319123     -0.94753     
0.0320595     -0.946291    
0.0322067     -0.94424     
0.0323539     -0.942245    
0.0325012     -0.940404    
0.0326485     -0.935868    
0.0327959     -0.93898     
0.0329433     -0.938054    
0.0330908     -0.935381    
0.0332383     -0.93312     
0.0333858     -0.930187    
0.0335334     -0.928576    
0.033681      -0.927202    
0.0338287     -0.923891    
0.0339764     -0.925167    
0.0341241     -0.923502    
0.0342719     -0.924638    
0.0344197     -0.923816    
0.0345676     -0.921067    
0.0347155     -0.915627    
0.0348635     -0.914981    
0.0350115     -0.915689    
0.0351596     -0.91399     
0.0353077     -0.912519    
0.0354558     -0.910988    
0.035604      -0.909325    
0.0357522     -0.907773    
0.0359005     -0.906317    
0.0360489     -0.904566    
0.0361972     -0.903384    
0.0363457     -0.896934    
0.0364941     -0.893733    
0.0366426     -0.89664     
0.0367912     -0.895855    
0.0369398     -0.8922      
0.0370885     -0.891587    
0.0372372     -0.890269    
0.037386      -0.889325    
0.0375348     -0.884691    
0.0376837     -0.882131    
0.0378326     -0.882176    
0.0379816     -0.880734    
0.0381306     -0.878927    
0.0382797     -0.87617     
0.0384288     -0.87307     
0.0385779     -0.874558    
0.0387272     -0.873801    
0.0388765     -0.871722    
0.0390258     -0.867566    
0.0391752     -0.873598    
0.0393246     -0.869924    
0.0394741     -0.867292    
0.0396237     -0.86769     
0.0397733     -0.866785    
0.0399229     -0.863412    
0.0400726     -0.861174    
0.0402224     -0.858156    
0.0403722     -0.856936    
0.0405221     -0.855303    
0.040672      -0.853698    
0.040822      -0.849564    
0.0409721     -0.849722    
0.0411222     -0.848178    
0.0412724     -0.846119    
0.0414226     -0.846418    
0.0415729     -0.844045    
0.0417232     -0.842983    
0.0418737     -0.84166     
0.0420241     -0.838899    
0.0421747     -0.836793    
0.0423253     -0.835943    
0.0424759     -0.834936    
0.0426266     -0.831903    
0.0427774     -0.829958    
0.0429282     -0.828413    
0.0430791     -0.826223    
0.0432301     -0.825089    
0.0433811     -0.823789    
0.0435322     -0.822556    
0.0436833     -0.820983    
0.0438345     -0.820164    
0.0439858     -0.81909     
0.0441371     -0.82039     
0.0442886     -0.815423    
0.04444       -0.814664    
0.0445916     -0.813457    
0.0447432     -0.811796    
0.0448948     -0.810035    
0.0450466     -0.809306    
0.0451984     -0.809064    
0.0453502     -0.808961    
0.0455022     -0.803592    
0.0456542     -0.801416    
0.0458063     -0.800558    
0.0459584     -0.801857    
0.0461107     -0.801375    
0.046263      -0.80065     
0.0464153     -0.799834    
0.0465677     -0.796121    
0.0467202     -0.79493     
0.0468728     -0.7967      
0.0470255     -0.796132    
0.0471782     -0.794508    
0.047331      -0.791434    
0.0474838     -0.794052    
0.0476368     -0.792721    
0.0477898     -0.792109    
0.0479429     -0.792426    
0.048096      -0.791046    
0.0482492     -0.788412    
0.0484026     -0.789931    
0.0485559     -0.792544    
0.0487094     -0.791184    
0.0488629     -0.787003    
0.0490165     -0.785398    
0.0491702     -0.784569    
0.049324      -0.783986    
0.0494779     -0.787336    
0.0496318     -0.788625    
0.0497858     -0.788237    
0.0499399     -0.785829    
0.050094      -0.784977    
0.0502483     -0.784765    
0.0504026     -0.784954    
0.050557      -0.78517     
0.0507115     -0.785818    
0.050866      -0.783257    
0.0510207     -0.783074    
0.0511754     -0.782408    
0.0513302     -0.782404    
0.0514852     -0.782916    
0.0516401     -0.783431    
0.0517952     -0.782429    
0.0519504     -0.783731    
0.0521056     -0.78264     
0.0522609     -0.781204    
0.0524163     -0.781089    
0.0525718     -0.781192    
0.0527274     -0.783476    
0.0528831     -0.785426    
0.0530388     -0.786487    
0.0531947     -0.784005    
0.0533506     -0.786236    
0.0535066     -0.786932    
0.0536627     -0.787532    
0.0538189     -0.788404    
0.0539752     -0.78981     
0.0541316     -0.791407    
0.0542879     -0.788938    
0.0544441     -0.789372    
0.0546002     -0.79046     
0.0547562     -0.791085    
0.0549121     -0.792479    
0.0550679     -0.794147    
0.0552236     -0.796035    
0.0553792     -0.797236    
0.0555347     -0.796643    
0.0556901     -0.79912     
0.0558454     -0.802014    
0.0560006     -0.801736    
0.0561557     -0.802433    
0.0563107     -0.803       
0.0564656     -0.804519    
0.0566204     -0.805863    
0.0567751     -0.80933     
0.0569297     -0.808405    
0.0570842     -0.810019    
0.0572386     -0.810442    
0.0573929     -0.813024    
0.0575471     -0.816821    
0.0577012     -0.816154    
0.0578552     -0.816047    
0.0580091     -0.818934    
0.0581629     -0.817768    
0.0583166     -0.819534    
0.0584702     -0.820344    
0.0586237     -0.820944    
0.0587771     -0.824481    
0.0589304     -0.826794    
0.0590836     -0.829833    
0.0592367     -0.830757    
0.0593897     -0.83241     
0.0595426     -0.834395    
0.0596954     -0.835806    
0.0598481     -0.837128    
0.0600007     -0.839725    
0.0601532     -0.83931     
0.0603056     -0.84049     
0.0604579     -0.844157    
0.0606101     -0.847436    
0.0607622     -0.850515    
0.0609142     -0.853708    
0.0610661     -0.854502    
0.0612179     -0.856603    
0.0613697     -0.859921    
0.0615213     -0.860069    
0.0616728     -0.859806    
0.0618242     -0.860641    
0.0619755     -0.864155    
0.0621267     -0.867307    
0.0622777     -0.870704    
0.0624287     -0.874075    
0.0625796     -0.874075    
0.0627304     -0.876276    
0.0628811     -0.88147     
0.0630317     -0.885491    
0.0631821     -0.890203    
0.0633325     -0.894219    
0.0634828     -0.897219    
0.063633      -0.90061     
0.0637831     -0.90104     
0.0639331     -0.904311    
0.064083      -0.910368    
0.0642328     -0.909666    
0.0643825     -0.912094    
0.0645321     -0.916621    
0.0646816     -0.916465    
0.064831      -0.920284    
0.0649803     -0.928431    
0.0651294     -0.932415    
0.0652785     -0.937062    
0.0654275     -0.940547    
0.0655764     -0.944344    
0.0657252     -0.947021    
0.0658739     -0.95098     
0.0660225     -0.954933    
0.066171      -0.96113     
0.0663194     -0.962656    
0.0664677     -0.967897    
0.0666158     -0.970905    
0.0667639     -0.975701    
0.0669119     -0.981493    
0.0670598     -0.984688    
0.0672076     -0.990526    
0.0673553     -0.993342    
0.0675029     -0.997829    
0.0676504     -1           
0.0677978     -1.00638     
0.0679451     -1.01495     
0.0680922     -1.01619     
0.0682393     -1.02248     
0.0683863     -1.0278      
0.0685332     -1.03316     
0.06868       -1.03908     
0.0688267     -1.04599     
0.0689733     -1.04754     
0.0691198     -1.05034     
0.0692662     -1.05583     
0.0694125     -1.06512     
0.0695587     -1.07391     
0.0697048     -1.07203     
0.0698508     -1.0776      
0.0699967     -1.08464     
0.0701425     -1.08712     
0.0702882     -1.09358     
0.0704339     -1.10268     
0.0705794     -1.10652     
0.0707248     -1.11338     
0.0708701     -1.1205      
0.0710153     -1.12076     
0.0711604     -1.12698     
0.0713055     -1.13367     
0.0714504     -1.13577     
0.0715952     -1.14111     
0.07174       -1.1478      
0.0718846     -1.15889     
0.0720292     -1.16568     
0.0721736     -1.16885     
0.0723179     -1.17599     
0.0724622     -1.18335     
0.0726064     -1.18881     
0.0727504     -1.19461     
0.0728944     -1.20117     
0.0730383     -1.20788     
0.073182      -1.21251     
0.0733257     -1.21894     
0.0734693     -1.22649     
0.0736128     -1.23012     
0.0737562     -1.23544     
0.0738995     -1.24302     
0.0740427     -1.25545     
0.0741858     -1.26251     
0.0743288     -1.2696      
0.0744717     -1.27476     
0.0746145     -1.28237     
0.0747572     -1.29082     
0.0748998     -1.29434     
0.0750424     -1.3024      
0.0751848     -1.308       
0.0753271     -1.31559     
0.0754694     -1.32158     
0.0756115     -1.32598     
0.0757536     -1.33614     
0.0758955     -1.341       
0.0760374     -1.34534     
0.0761792     -1.35472     
0.0763208     -1.36654     
0.0764624     -1.37497     
0.0766039     -1.38089     
0.0767453     -1.38689     
0.0768866     -1.39051     
0.0770278     -1.3979      
0.0771689     -1.40368     
0.0773099     -1.41249     
0.0774509     -1.41571     
0.0775917     -1.4267      
0.0777324     -1.43588     
0.077873      -1.44638     
0.0780136     -1.45139     
0.0781541     -1.45335     
0.0782944     -1.46071     
0.0784347     -1.46912     
0.0785749     -1.47852     
0.078715      -1.47919     
0.078855      -1.4857      
0.0789949     -1.49328     
0.0791347     -1.5008      
0.0792744     -1.50702     
0.079414      -1.5191      
0.0795536     -1.52634     
0.079693      -1.5319      
0.0798324     -1.54011     
0.0799716     -1.54814     
0.0801108     -1.55021     
0.0802499     -1.55705     
0.0803889     -1.56369     
0.0805278     -1.56566     
0.0806666     -1.57204     
0.0808053     -1.58316     
0.080944      -1.5875      
0.0810825     -1.59564     
0.081221      -1.60387     
0.0813594     -1.60913     
0.0814976     -1.61681     
0.0816358     -1.62534     
0.0817739     -1.62974     
0.0819119     -1.63636     
0.0820498     -1.63878     
0.0821877     -1.64388     
0.0823254     -1.65457     
0.0824631     -1.66025     
0.0826007     -1.66498     
0.0827382     -1.67415     
0.0828755     -1.68073     
0.0830128     -1.68764     
0.0831501     -1.69383     
0.0832872     -1.6982      
0.0834242     -1.7053      
0.0835612     -1.70965     
0.0836981     -1.721       
0.0838348     -1.72436     
0.0839716     -1.72925     
0.0841082     -1.73446     
0.0842447     -1.7389      
0.0843812     -1.74937     
0.0845175     -1.75149     
0.0846538     -1.75778     
0.0847899     -1.76433     
0.084926      -1.77256     
0.085062      -1.77304     
0.085198      -1.77876     
0.0853338     -1.78062     
0.0854696     -1.78757     
0.0856052     -1.79266     
0.0857408     -1.79592     
0.0858763     -1.8017      
0.0860118     -1.80728     
0.0861471     -1.81371     
0.0862824     -1.81876     
0.0864175     -1.82453     
0.0865526     -1.83028     
0.0866876     -1.83374     
0.0868226     -1.839       
0.0869574     -1.84763     
0.0870922     -1.84902     
0.0872269     -1.85516     
0.0873615     -1.85499     
0.087496      -1.85997     
0.0876304     -1.8665      
0.0877648     -1.87176     
0.087899      -1.87553     
0.0880332     -1.87827     
0.0881673     -1.88376     
0.0883014     -1.88468     
0.0884353     -1.89184     
0.0885692     -1.89484     
0.088703      -1.89925     
0.0888367     -1.90657     
0.0889703     -1.90322     
0.0891038     -1.90837     
0.0892373     -1.9129      
0.0893707     -1.91873     
0.089504      -1.92324     
0.0896372     -1.92798     
0.0897703     -1.93123     
0.0899034     -1.92981     
0.0900364     -1.93835     
0.0901693     -1.93979     
0.0903021     -1.94319     
0.0904349     -1.94475     
0.0905676     -1.94703     
0.0907002     -1.95269     
0.0908327     -1.95517     
0.0909651     -1.95872     
0.0910975     -1.96298     
0.0912298     -1.96601     
0.091362      -1.96853     
0.0914941     -1.96992     
0.0916261     -1.97206     
0.0917581     -1.9801      
0.09189       -1.98385     
0.0920219     -1.98598     
0.0921536     -1.98883     
0.0922853     -1.99102     
0.0924169     -1.99133     
0.0925484     -1.99331     
0.0926799     -1.99671     
0.0928112     -1.9997      
0.0929425     -2.00216     
0.0930738     -2.0039      
0.0932049     -2.0066      
0.093336      -2.00809     
0.093467      -2.01394     
0.0935979     -2.01633     
0.0937288     -2.01355     
0.0938596     -2.01305     
0.0939903     -2.01362     
0.0941209     -2.01437     
0.0942515     -2.01692     
0.094382      -2.02015     
0.0945124     -2.02277     
0.0946427     -2.02493     
0.094773      -2.02379     
0.0949032     -2.0277      
0.0950333     -2.02874     
0.0951634     -2.02882     
0.0952934     -2.0359      
0.0954233     -2.03961     
0.0955531     -2.04259     
0.0956829     -2.04417     
0.0958126     -2.04291     
0.0959422     -2.03645     
0.0960718     -2.03913     
0.0962013     -2.04137     
0.0963307     -2.04334     
0.09646       -2.04013     
0.0965893     -2.04307     
0.0967185     -2.05073     
0.0968477     -2.05289     
0.0969767     -2.0533      
0.0971057     -2.05273     
0.0972347     -2.05301     
0.0973635     -2.06009     
0.0974923     -2.05749     
0.0976211     -2.05894     
0.0977497     -2.06141     
0.0978783     -2.06098     
0.0980068     -2.06368     
0.0981353     -2.06242     
0.0982637     -2.06224     
0.098392      -2.06296     
0.0985202     -2.06352     
0.0986484     -2.06485     
0.0987765     -2.06565     
0.0989046     -2.06761     
0.0990326     -2.0661      
0.0991605     -2.06717     
0.0992884     -2.06582     
0.0994161     -2.06764     
0.0995439     -2.06889     
0.0996715     -2.07201     
0.0997991     -2.07073     
0.0999267     -2.07351     
0.100054      -2.07062     
0.100182      -2.07221     
0.100309      -2.07433     
0.100436      -2.07393     
0.100563      -2.07398     
0.10069       -2.07195     
0.100818      -2.07111     
0.100945      -2.07276     
0.101072      -2.07364     
0.101198      -2.07584     
0.101325      -2.0762      
0.101452      -2.07651     
0.101579      -2.07596     
0.101705      -2.07692     
0.101832      -2.07762     
0.101958      -2.07825     
0.102085      -2.07874     
0.102211      -2.07548     
0.102338      -2.07599     
0.102464      -2.07727     
0.10259       -2.0743      
0.102716      -2.0753      
0.102842      -2.07525     
0.102968      -2.07551     
0.103094      -2.07621     
0.10322       -2.07824     
0.103346      -2.0726      
0.103472      -2.07353     
0.103598      -2.07481     
0.103723      -2.07371     
0.103849      -2.07336     
0.103974      -2.07166     
0.1041        -2.07275     
0.104225      -2.0707      
0.104351      -2.07047     
0.104476      -2.07042     
0.104601      -2.06979     
0.104726      -2.07222     
0.104851      -2.07123     
0.104977      -2.07162     
0.105102      -2.07011     
0.105226      -2.06698     
0.105351      -2.06527     
0.105476      -2.06703     
0.105601      -2.06728     
0.105726      -2.06743     
0.10585       -2.06715     
0.105975      -2.06752     
0.1061        -2.06681     
0.106224      -2.06755     
0.106349      -2.06039     
0.106473      -2.06439     
0.106597      -2.06637     
0.106722      -2.06425     
0.106846      -2.06518     
0.10697       -2.06681     
0.107094      -2.06466     
0.107218      -2.05694     
0.107342      -2.057       
0.107466      -2.05892     
0.10759       -2.05649     
0.107714      -2.05879     
0.107838      -2.05769     
0.107961      -2.05501     
0.108085      -2.05531     
0.108209      -2.05407     
0.108332      -2.05158     
0.108456      -2.05356     
0.108579      -2.05315     
0.108703      -2.05323     
0.108826      -2.05273     
0.108949      -2.05316     
0.109073      -2.05443     
0.109196      -2.04929     
0.109319      -2.04916     
0.109442      -2.05035     
0.109565      -2.04948     
0.109688      -2.04922     
0.109811      -2.04894     
0.109934      -2.04892     
0.110057      -2.04164     
0.11018       -2.04639     
0.110303      -2.04641     
0.110425      -2.04529     
0.110548      -2.04812     
0.110671      -2.0486      
0.110793      -2.04418     
0.110916      -2.04383     
0.111038      -2.04168     
0.11116       -2.04338     
0.111283      -2.0419      
0.111405      -2.04121     
0.111527      -2.03937     
0.11165       -2.03879     
0.111772      -2.03742     
0.111894      -2.03765     
0.112016      -2.03335     
0.112138      -2.03912     
0.11226       -2.03607     
0.112382      -2.03809     
0.112504      -2.03421     
0.112626      -2.03349     
0.112747      -2.03316     
0.112869      -2.03188     
0.112991      -2.03367     
0.113112      -2.03203     
0.113234      -2.0321      
0.113356      -2.03126     
0.113477      -2.02984     
0.113599      -2.02647     
0.11372       -2.03037     
0.113841      -2.03133     
0.113963      -2.03052     
0.114084      -2.03054     
0.114205      -2.02634     
0.114326      -2.02564     
0.114448      -2.02528     
0.114569      -2.02497     
0.11469       -2.02677     
0.114811      -2.0233      
0.114932      -2.02347     
0.115053      -2.02055     
0.115174      -2.02057     
0.115294      -2.01875     
0.115415      -2.0175      
0.115536      -2.0174      
0.115657      -2.01778     
0.115777      -2.01847     
0.115898      -2.01619     
0.116018      -2.01392     
0.116139      -2.01247     
0.116259      -2.01082     
0.11638       -2.01084     
0.1165        -2.01043     
0.116621      -2.00962     
0.116741      -2.00873     
0.116861      -2.00572     
0.116982      -2.00917     
0.117102      -2.00938     
0.117222      -2.00977     
0.117342      -2.00933     
0.117462      -2.00798     
0.117582      -2.00802     
0.117702      -2.00555     
0.117822      -2.00482     
0.117942      -2.00514     
0.118062      -2.00143     
0.118182      -2.00385     
0.118302      -2.00431     
0.118421      -2.00797     
0.118541      -1.99886     
0.118661      -1.99822     
0.11878       -1.99829     
0.1189        -1.99745     
0.119019      -1.99609     
0.119139      -1.99445     
0.119258      -1.99676     
0.119378      -1.99683     
0.119497      -1.99576     
0.119617      -1.99457     
0.119736      -1.99495     
0.119855      -1.99628     
0.119975      -1.99588     
0.120094      -1.99399     
0.120213      -1.99317     
0.120332      -1.99396     
0.120451      -1.99356     
0.12057       -1.99206     
0.120689      -1.99099     
0.120808      -1.99202     
0.120927      -1.99032     
0.121046      -1.99024     
0.121165      -1.98999     
0.121284      -1.99044     
0.121403      -1.98712     
0.121521      -1.98698     
0.12164       -1.98616     
0.121759      -1.98527     
0.121878      -1.98432     
0.121996      -1.98464     
0.122115      -1.98414     
0.122233      -1.98399     
0.122352      -1.98252     
0.12247       -1.98197     
0.122589      -1.98121     
0.122707      -1.97936     
0.122826      -1.97794     
0.122944      -1.97831     
0.123062      -1.97782     
0.123181      -1.97779     
0.123299      -1.97624     
0.123417      -1.97598     
0.123535      -1.97557     
0.123653      -1.97542     
0.123771      -1.97382     
0.12389       -1.97344     
0.124008      -1.9734      
0.124126      -1.97187     
0.124244      -1.97141     
0.124362      -1.97133     
0.124479      -1.96831     
0.124597      -1.96708     
0.124715      -1.96607     
0.124833      -1.96551     
0.124951      -1.96709     
0.125069      -1.96448     
0.125186      -1.96355     
0.125304      -1.96301     
0.125422      -1.96225     
0.125539      -1.96322     
0.125657      -1.96122     
0.125775      -1.95845     
0.125892      -1.95786     
0.12601       -1.95739     
0.126127      -1.95761     
0.126245      -1.95548     
0.126362      -1.95502     
0.126479      -1.95302     
0.126597      -1.95488     
0.126714      -1.95051     
0.126831      -1.95163     
0.126949      -1.95081     
0.127066      -1.94984     
0.127183      -1.94845     
0.1273        -1.94792     
0.127417      -1.94706     
0.127535      -1.94707     
0.127652      -1.94631     
0.127769      -1.94583     
0.127886      -1.94365     
0.128003      -1.94206     
0.12812       -1.9367      
0.128237      -1.94509     
0.128354      -1.94193     
0.128471      -1.94123     
0.128587      -1.94022     
0.128704      -1.93771     
0.128821      -1.93715     
0.128938      -1.93681     
0.129055      -1.93717     
0.129171      -1.93364     
0.129288      -1.93537     
0.129405      -1.93443     
0.129521      -1.92897     
0.129638      -1.9306      
0.129755      -1.93032     
0.129871      -1.92418     
0.129988      -1.92929     
0.130104      -1.92814     
0.130221      -1.92731     
0.130337      -1.92484     
0.130454      -1.92413     
0.13057       -1.92464     
0.130687      -1.92229     
0.130803      -1.92274     
0.130919      -1.92193     
0.131036      -1.92036     
0.131152      -1.91882     
0.131268      -1.91595     
0.131384      -1.9122      
0.131501      -1.9172      
0.131617      -1.91589     
0.131733      -1.91502     
0.131849      -1.91387     
0.131965      -1.91283     
0.132081      -1.9121      
0.132197      -1.91235     
0.132314      -1.91088     
0.13243       -1.90931     
0.132546      -1.90942     
0.132662      -1.90752     
0.132777      -1.9057      
0.132893      -1.90599     
0.133009      -1.90224     
0.133125      -1.90004     
0.133241      -1.90083     
0.133357      -1.89748     
0.133473      -1.89907     
0.133589      -1.90117     
0.133704      -1.90138     
0.13382       -1.89945     
0.133936      -1.89665     
0.134052      -1.89593     
0.134167      -1.89483     
0.134283      -1.89401     
0.134399      -1.8926      
0.134514      -1.89116     
0.13463       -1.8891      
0.134745      -1.88856     
0.134861      -1.89057     
0.134976      -1.88902     
0.135092      -1.88692     
0.135208      -1.88655     
0.135323      -1.8855      
0.135438      -1.88742     
0.135554      -1.88255     
0.135669      -1.88098     
0.135785      -1.87799     
0.1359        -1.87759     
0.136015      -1.87549     
0.136131      -1.87544     
0.136246      -1.87308     
0.136361      -1.87221     
0.136477      -1.87088     
0.136592      -1.86941     
0.136707      -1.86866     
0.136822      -1.86835     
0.136938      -1.86912     
0.137053      -1.86968     
0.137168      -1.86794     
0.137283      -1.86635     
0.137398      -1.86396     
0.137513      -1.86408     
0.137628      -1.8622      
0.137743      -1.86217     
0.137858      -1.86117     
0.137973      -1.86069     
0.138088      -1.85969     
0.138203      -1.85815     
0.138318      -1.85729     
0.138433      -1.85676     
0.138548      -1.85581     
0.138663      -1.85745     
0.138778      -1.85494     
0.138893      -1.85515     
0.139008      -1.85044     
0.139123      -1.84984     
0.139238      -1.84899     
0.139352      -1.84772     
0.139467      -1.84766     
0.139582      -1.84609     
0.139697      -1.84684     
0.139812      -1.84678     
0.139926      -1.84753     
0.140041      -1.84407     
0.140156      -1.84103     
0.14027       -1.83752     
0.140385      -1.83633     
0.1405        -1.83676     
0.140614      -1.83593     
0.140729      -1.83556     
0.140844      -1.83504     
0.140958      -1.83499     
0.141073      -1.83234     
0.141187      -1.83558     
0.141302      -1.83034     
0.141416      -1.82944     
0.141531      -1.82858     
0.141646      -1.82799     
0.14176       -1.82364     
0.141874      -1.82197     
0.141989      -1.82382     
0.142103      -1.82247     
0.142218      -1.82218     
0.142332      -1.81933     
0.142447      -1.82036     
0.142561      -1.81884     
0.142675      -1.81778     
0.14279       -1.81553     
0.142904      -1.81473     
0.143018      -1.81409     
0.143133      -1.81297     
0.143247      -1.81163     
0.143361      -1.81066     
0.143476      -1.81008     
0.14359       -1.80913     
0.143704      -1.80835     
0.143818      -1.80911     
0.143933      -1.8047      
0.144047      -1.80322     
0.144161      -1.80225     
0.144275      -1.80132     
0.144389      -1.80019     
0.144504      -1.79898     
0.144618      -1.79656     
0.144732      -1.7932      