/*--------------------------------*- C++ -*----------------------------------*\
  =========                 |
  \\      /  F ield         | OpenFOAM: The Open Source CFD Toolbox
   \\    /   O peration     | Website:  https://openfoam.org
    \\  /    A nd           | Version:  8
     \\/     M anipulation  |
\*---------------------------------------------------------------------------*/
FoamFile
{
    version     2.0;
    format      ascii;
    class       volVectorField;
    location    "0.750";
    object      vorticity;
}
// * * * * * * * * * * * * * * * * * * * * * * * * * * * * * * * * * * * * * //

dimensions      [0 0 -1 0 0 0 0];

internalField   nonuniform List<vector> 
16200
(
(-6.00719e-17 7.06734e-17 9.76306)
(-2.6511e-16 4.00652e-16 13.0529)
(-2.32872e-18 -1.32569e-18 19.4576)
(1.14507e-16 -3.40773e-16 26.323)
(8.49322e-16 -9.93433e-16 7.63024)
(5.26071e-19 1.69952e-18 17.2164)
(1.66663e-15 -2.24576e-15 21.6632)
(8.84304e-19 -2.81096e-18 30.6742)
(8.74003e-16 -1.26099e-15 16.3847)
(-1.35451e-16 5.32442e-16 34.9747)
(-9.27227e-16 1.11401e-15 8.35975)
(-3.21581e-16 6.43634e-16 22.4042)
(-2.26036e-16 -1.46973e-15 29.7904)
(5.86367e-19 -4.21417e-18 37.8814)
(1.00409e-15 -1.343e-15 7.46542)
(-5.47825e-19 5.59867e-19 28.1367)
(2.69424e-16 -6.61459e-16 18.679)
(-4.8137e-16 6.83275e-16 13.7476)
(-1.6258e-19 7.76901e-19 3.3819)
(6.86869e-19 -2.15641e-19 16.3092)
(-1.14462e-16 6.08332e-16 5.64727)
(-1.38844e-19 9.369e-20 2.56111)
(-8.03644e-16 1.01991e-15 5.77718)
(6.97174e-16 -1.47822e-15 2.43119)
(-4.3253e-17 -7.53022e-16 9.94566)
(-8.26217e-16 1.22122e-15 6.90854)
(2.92865e-17 -6.58333e-16 17.0738)
(1.52246e-16 -6.75682e-16 12.2183)
(-3.99138e-17 4.74975e-16 -2.57494)
(2.24344e-16 9.39609e-16 23.7992)
(-1.01561e-19 -5.65387e-19 13.6318)
(8.67663e-16 -1.23084e-15 1.10665)
(2.79322e-19 1.0774e-15 10.8195)
(3.44978e-17 -1.26531e-16 -3.29681)
(3.97349e-16 1.36593e-15 12.909)
(-1.81378e-16 4.26815e-16 0.514431)
(-9.78179e-21 -2.74435e-19 -5.95845)
(-5.77364e-21 -1.61804e-19 -4.33199)
(6.99754e-17 -3.98931e-16 -5.32687)
(-3.54854e-21 1.64388e-19 -1.25424)
(6.06793e-17 -8.1378e-16 -0.333727)
(1.0481e-17 4.21828e-17 15.153)
(-1.01262e-20 7.77635e-20 -3.52912)
(3.95824e-20 -1.07926e-19 -4.01639)
(-9.17439e-17 1.77875e-15 3.55233)
(7.89326e-17 -5.36707e-16 -1.83769)
(-1.38256e-19 -1.27864e-20 -5.30263)
(6.25306e-20 1.40303e-19 5.94932)
(4.74406e-18 -1.85958e-16 -3.0154)
(4.47238e-16 -6.31946e-16 6.28665)
(-3.40274e-16 -1.55521e-15 7.12701)
(1.10946e-17 -1.49309e-17 2.5247)
(-2.11891e-17 1.14291e-16 -3.95365)
(1.51044e-16 -3.29107e-16 9.0006)
(-1.48417e-18 -5.75788e-19 7.87159)
(-2.53066e-16 5.26156e-16 3.6162)
(2.89971e-16 -3.73902e-16 8.9007)
(-5.55638e-18 -7.60021e-16 -6.45485)
(1.85062e-15 4.70075e-15 8.21841)
(-1.09535e-16 1.86794e-17 6.16079)
(7.98473e-17 -3.77605e-16 -0.88252)
(5.48178e-20 -1.03298e-19 14.1565)
(3.76179e-16 -7.63221e-16 1.61516)
(1.11974e-18 7.63024e-19 14.302)
(1.66589e-16 1.22012e-18 17.5064)
(6.4092e-18 -4.31286e-17 9.25568)
(-9.47599e-17 4.83003e-16 21.6631)
(-1.06589e-16 3.14619e-16 4.11627)
(-6.02462e-16 -1.67932e-15 23.3566)
(-1.06466e-20 1.03931e-20 55.4153)
(1.75734e-18 -1.97598e-20 19.7473)
(-1.12414e-19 -1.13621e-19 29.3899)
(7.2145e-17 -4.41076e-16 14.5212)
(4.25209e-16 -8.16845e-16 2.22739)
(-1.0422e-16 6.09816e-16 2.86546)
(-1.23698e-17 -4.88286e-17 28.1388)
(3.65348e-20 -9.69767e-17 -3.35355)
(2.39973e-18 -1.29446e-18 25.8046)
(-1.2102e-18 -4.62683e-17 -11.0584)
(1.7063e-18 8.7189e-19 11.1974)
(-5.96631e-16 -1.23956e-15 -2.47438)
(0 0 4.13299)
(1.24866e-19 -1.59302e-17 -2.32535)
(-1.63932e-18 1.21457e-17 10.8759)
(1.10449e-16 9.60263e-16 1.00178)
(3.0186e-17 -5.24629e-17 22.3111)
(-6.88062e-20 6.85449e-20 -13.0944)
(-9.89911e-17 2.16728e-17 3.89536)
(-4.1886e-21 7.74666e-21 4.42656)
(1.44646e-17 -9.4756e-16 -7.83232)
(2.41575e-17 4.93535e-17 4.0948)
(1.33843e-17 3.07825e-17 16.4622)
(-5.29521e-16 -1.47006e-15 1.95893)
(5.8861e-16 1.03381e-15 14.2331)
(7.57042e-16 1.53651e-15 -1.46161)
(9.62198e-16 2.96189e-15 3.45406)
(6.3183e-16 1.5317e-15 2.69693)
(2.22655e-17 4.71559e-17 -2.45546)
(9.58842e-19 -1.01385e-18 -7.4418)
(1.88931e-18 -2.78501e-17 -9.73363)
(-2.49034e-16 -9.49068e-16 -0.532277)
(-7.12343e-16 -1.55221e-15 -1.22488)
(-5.89407e-19 -1.70216e-17 -20.2812)
(0 0 -18.4077)
(2.18224e-17 3.65957e-17 12.589)
(-4.6103e-19 4.96442e-20 3.42558)
(-1.33019e-17 -2.40682e-17 -8.13513)
(1.50778e-17 -2.27143e-17 10.85)
(-5.9772e-16 -1.13982e-15 9.58843)
(-2.87601e-17 -8.46651e-18 1.72477)
(-7.32255e-16 -1.42904e-15 -7.25743)
(-1.42944e-15 -2.84586e-15 6.43638)
(6.43958e-16 1.09001e-15 -13.5854)
(-1.58387e-19 -2.8479e-19 -10.7612)
(3.5923e-20 1.3779e-19 -3.86702)
(-7.84397e-18 -3.77439e-16 -21.3437)
(-1.23005e-15 -3.1344e-15 -7.94279)
(-1.11726e-18 -6.28293e-21 -14.5049)
(-8.33756e-17 -7.08237e-16 2.69253)
(-6.7442e-19 -1.20681e-20 8.87317)
(-5.21664e-16 -1.21122e-15 5.0394)
(1.25834e-19 2.19107e-19 11.0021)
(-6.1861e-16 -1.41345e-15 -15.7131)
(-2.45553e-17 3.70634e-16 2.07961)
(-1.30595e-15 -2.92836e-15 0.425142)
(1.18515e-19 -1.94443e-19 -10.5834)
(-6.14676e-16 -1.03354e-15 -20.8045)
(-7.90993e-16 -1.31532e-15 -7.76804)
(-4.93961e-19 -7.86099e-18 -21.9542)
(3.37941e-16 1.55797e-15 -12.0527)
(-1.45303e-18 -1.37922e-17 -18.6823)
(-1.45529e-19 -1.29118e-19 0.587346)
(-3.67895e-19 -1.94648e-19 1.67822)
(-4.02973e-16 -8.75068e-16 5.56148)
(9.25486e-18 3.89188e-16 11.1948)
(-5.11914e-16 -1.42227e-15 -22.1451)
(-5.01751e-20 -2.26165e-20 2.38864)
(9.87676e-16 2.98048e-15 -6.00153)
(-3.74096e-16 -9.6106e-16 -29.7537)
(-4.91289e-17 -5.9097e-16 -8.83461)
(-6.62416e-19 5.34981e-19 -11.8359)
(-2.16064e-16 -1.5723e-15 -12.5063)
(1.41121e-17 3.33379e-16 -22.0321)
(2.42381e-18 6.89175e-18 2.67808)
(8.08662e-17 1.55693e-15 -21.7865)
(-1.44677e-16 -4.71386e-16 0.85141)
(2.43535e-19 1.31908e-18 -3.15649)
(-1.88514e-17 -4.02523e-16 11.5923)
(-1.1289e-18 5.86226e-18 -27.8547)
(-3.30584e-16 -1.50082e-15 -8.23045)
(-2.87795e-21 5.03849e-21 2.54435)
(-6.8866e-17 -9.2367e-16 -35.8319)
(-5.88372e-16 -8.67546e-16 -14.5176)
(-6.7389e-17 -5.439e-16 -6.42737)
(1.81447e-16 -1.54762e-15 -12.0803)
(-1.8571e-17 -2.6714e-16 -21.3901)
(-3.88913e-17 -4.61399e-16 12.2875)
(1.78651e-18 8.87738e-18 0.499226)
(-3.56211e-18 -1.29286e-15 -3.86247)
(-8.63244e-19 -3.78643e-18 0.742123)
(3.79208e-16 -1.51801e-15 -19.5143)
(6.14329e-17 2.99596e-15 -8.74762)
(8.97824e-17 5.4279e-16 2.92891)
(3.33438e-19 -2.91531e-18 -27.7513)
(-1.58248e-19 -4.11211e-18 -35.234)
(-5.74112e-19 -9.90787e-19 -15.9353)
(8.60391e-19 3.47754e-18 -4.43056)
(4.16936e-20 7.23896e-20 -19.9553)
(1.99042e-16 -1.55331e-15 -10.3089)
(-8.18731e-17 -9.85077e-16 13.0735)
(1.4692e-16 6.42155e-16 0.616809)
(1.16672e-15 -2.96939e-15 -13.0749)
(-9.66524e-17 -1.07991e-15 -0.707352)
(1.98722e-16 -1.25784e-15 -3.75534)
(-8.82103e-17 -5.67858e-16 3.62652)
(5.19639e-16 -1.39182e-15 -21.4041)
(2.7091e-16 -1.46273e-15 -8.29583)
(-3.86123e-16 9.4955e-16 -27.8842)
(-4.47636e-17 3.29105e-16 -16.5182)
(7.69157e-17 3.85234e-16 -2.93606)
(5.96835e-16 -1.46606e-15 -6.55432)
(2.21694e-17 1.58929e-16 -18.1133)
(2.06359e-19 3.50362e-19 -2.48064)
(-1.15276e-16 -7.15172e-16 1.22234)
(6.94987e-16 -1.46675e-15 -6.98727)
(-2.29397e-19 -8.13653e-19 13.8325)
(-3.85665e-16 1.2019e-15 -2.12237)
(8.4846e-19 -3.36391e-19 -5.73974)
(-6.41616e-17 -6.58258e-16 4.40273)
(-6.00899e-16 1.38191e-15 -13.75)
(-4.57019e-17 -2.8886e-16 -1.94234)
(-6.13944e-16 1.03409e-15 -18.5787)
(7.27831e-19 1.25425e-18 -15.9668)
(-1.99091e-17 -1.31326e-16 -16.3661)
(-7.08839e-16 1.43691e-15 -3.02753)
(3.59789e-19 -8.823e-19 -2.37751)
(0 0 -3.7316)
(4.67127e-16 -1.16979e-15 1.13641)
(5.17469e-17 7.93846e-16 2.03575)
(-2.53754e-17 -5.76903e-16 14.4455)
(1.14134e-18 3.09168e-23 -7.65339)
(6.3082e-16 -1.37288e-15 -2.37733)
(4.05762e-17 6.98469e-16 5.26921)
(-6.39421e-16 1.06925e-15 -11.3261)
(-3.17213e-16 4.65448e-16 -13.7788)
(2.72847e-17 2.68259e-16 -1.54415)
(7.41019e-16 -1.42872e-15 1.42436)
(-3.83008e-19 5.46464e-19 -15.1191)
(5.78659e-25 -9.93873e-25 -2.88309)
(-6.2477e-16 1.05688e-15 5.25248)
(1.44882e-15 -2.98163e-15 1.46509)
(-1.7287e-19 -4.75802e-19 2.83182)
(1.94911e-17 5.88032e-16 14.9)
(1.83444e-19 -4.61875e-19 2.17249)
(3.73951e-19 -6.35677e-19 -3.10169)
(-1.42216e-19 -2.41593e-19 5.8679)
(-6.30365e-16 1.14122e-15 -6.12242)
(4.70459e-19 7.69891e-19 -9.83032)
(3.086e-19 -5.2365e-19 -1.48211)
(-2.39986e-18 2.224e-18 -14.6388)
(2.26913e-15 -4.2698e-15 6.71426)
(2.93161e-19 -3.79497e-24 15.1667)
(-6.54776e-16 9.7513e-16 10.7311)
(-1.32256e-15 3.0511e-15 7.47218)
(0 0 3.19133)
(-4.2833e-16 8.39818e-16 0.409597)
(-6.80108e-16 1.44088e-15 1.16329)
(4.27244e-23 7.2536e-23 6.20142)
(-2.38811e-18 -1.79918e-23 7.07108)
(5.63694e-16 -1.22083e-15 -2.10538)
(-1.28174e-20 2.26091e-20 -5.57054)
(-4.30651e-17 2.85382e-16 -2.21282)
(-2.00954e-15 4.31283e-15 15.8743)
(8.5236e-18 -9.15247e-17 -14.9093)
(-1.90362e-21 -3.23238e-21 4.41748)
(0 0 2.5764)
(5.49047e-16 -1.56249e-15 13.5186)
(-6.02231e-16 8.85637e-16 17.8009)
(1.4663e-19 2.43527e-19 15.1763)
(2.84262e-19 4.43449e-25 6.37725)
(2.78172e-18 1.72224e-18 14.2956)
(-1.08989e-15 3.03597e-15 6.18128)
(4.58536e-16 -1.30972e-15 -0.833451)
(6.3809e-17 -3.40105e-16 -3.57874)
(0 0 -3.1184)
(-4.84834e-19 -4.02344e-19 22.9866)
(1.57276e-19 -4.80188e-19 -15.5391)
(1.29475e-20 -1.79956e-20 9.09123)
(-1.99242e-17 5.91179e-16 14.9954)
(-4.78002e-16 3.2082e-15 16.7789)
(4.5837e-20 2.62875e-25 1.42231)
(-7.47129e-19 1.27702e-18 26.3381)
(6.93247e-16 -3.12711e-15 10.5781)
(1.14077e-15 -2.55927e-15 24.7985)
(-6.01805e-17 6.87229e-16 6.08575)
(8.33307e-22 -3.55735e-21 -5.24973)
(-3.30459e-16 1.38286e-15 2.28743)
(-2.18779e-16 9.46499e-16 -3.37524)
(-5.27417e-20 8.94946e-20 -16.3579)
(-1.86535e-16 1.48521e-15 28.4358)
(1.77829e-19 3.58325e-25 14.638)
(2.89946e-16 1.58504e-15 18.0426)
(-1.54916e-23 -2.63052e-23 13.1292)
(-1.47633e-19 -6.8809e-25 0.310921)
(1.71038e-16 -7.40063e-16 33.9875)
(3.68494e-16 -1.2904e-15 33.3092)
(-1.30919e-16 2.80313e-18 11.8354)
(1.52433e-16 -1.30566e-15 5.45892)
(1.55676e-16 -1.41237e-15 4.56827)
(-1.57902e-19 -2.72049e-19 -4.73974)
(-1.10245e-19 -5.19805e-25 -6.85949)
(1.85578e-16 1.47543e-15 27.9848)
(-1.42951e-18 2.70306e-17 -17.2224)
(1.56249e-16 1.60856e-15 16.203)
(1.70836e-16 7.3167e-16 35.9031)
(0 0 14.1147)
(2.01263e-16 -4.22651e-16 17.0521)
(-1.67291e-19 1.64943e-19 -0.374159)
(3.4372e-16 3.10278e-15 12.1917)
(-1.96102e-16 1.21352e-17 36.7488)
(9.55741e-17 -5.748e-16 4.69585)
(-4.87221e-17 -1.39933e-15 5.33972)
(-4.52137e-19 -4.28917e-24 -8.09811)
(1.04797e-16 -1.0842e-15 -5.19596)
(3.57707e-21 6.19346e-21 -18.0467)
(-1.22583e-16 2.08529e-17 20.2398)
(3.41927e-16 7.59846e-16 30.8898)
(-1.45224e-17 -3.8899e-16 19.5355)
(4.73135e-17 -4.64692e-16 13.5205)
(3.30813e-16 -9.31224e-16 -0.361504)
(5.55677e-16 1.51201e-15 11.065)
(-5.40045e-16 -1.26771e-15 30.2293)
(-9.73623e-17 5.40442e-16 4.20154)
(-1.14543e-16 3.5689e-17 9.99593)
(2.62678e-16 1.34745e-15 4.59791)
(2.83222e-17 -1.1001e-15 -2.71354)
(-9.53939e-19 3.71356e-19 -8.98725)
(-7.96142e-16 -1.39611e-15 11.7223)
(1.35863e-17 -3.17275e-16 -18.7485)
(1.53123e-15 2.87976e-15 6.6851)
(6.5985e-16 8.74325e-16 21.6144)
(1.28102e-19 -3.27671e-20 13.0191)
(-1.48246e-19 -2.51692e-19 0.0917417)
(-8.35928e-19 -1.41945e-18 18.6485)
(-6.82308e-16 -1.40719e-15 6.21836)
(9.35666e-22 -6.63192e-21 4.07276)
(6.60787e-16 1.26244e-15 20.026)
(-2.07707e-19 -6.41138e-20 2.22753)
(2.77465e-19 4.78071e-19 -0.0536474)
(-3.19511e-17 6.32664e-16 -9.64031)
(8.18863e-19 -1.28393e-19 -19.4051)
(-3.5953e-19 -3.06593e-18 5.25123)
(2.8445e-17 -3.79182e-16 12.6939)
(4.03894e-16 5.04738e-16 15.2582)
(2.75172e-19 -4.83734e-19 0.651911)
(-2.10649e-18 1.23835e-18 13.5161)
(1.04401e-18 -1.92493e-19 1.93448)
(2.74185e-19 -5.96805e-21 4.02938)
(-8.0074e-16 -1.26844e-15 11.2216)
(1.55891e-15 2.71734e-15 1.92819)
(-2.75546e-19 4.67552e-19 -10.1139)
(-8.91045e-24 -1.53516e-23 0.561078)
(-5.71547e-17 5.20162e-17 -1.53723)
(7.58128e-18 -3.54441e-16 -20.0878)
(2.60105e-15 4.21159e-15 1.22811)
(7.92815e-18 -3.59036e-16 12.5545)
(8.87948e-16 1.39103e-15 -3.1597)
(5.85636e-19 9.94526e-19 11.0009)
(7.1029e-16 1.06853e-15 7.31849)
(7.20222e-18 3.14121e-16 0.734313)
(8.45908e-16 1.32059e-15 -3.39362)
(1.84881e-18 -5.40009e-19 5.74911)
(-6.91561e-18 -3.78828e-16 4.14392)
(-2.91473e-18 6.70904e-16 -10.6913)
(-1.12767e-19 -1.9322e-19 -6.61)
(-3.03525e-16 -8.63439e-16 -0.287277)
(5.45718e-19 -4.00398e-21 -20.6981)
(-1.02635e-18 -3.91469e-20 -5.0244)
(-6.76662e-16 -1.11798e-15 1.86373)
(2.87527e-20 4.11811e-20 6.23005)
(-5.71291e-17 3.9415e-18 -12.1822)
(-2.14539e-16 -7.07537e-16 0.293117)
(-1.50597e-19 -2.79632e-19 12.6357)
(8.20634e-16 1.34664e-15 0.269419)
(8.77918e-16 1.28112e-15 -9.72229)
(-2.83014e-17 -3.87204e-16 4.04793)
(-1.46449e-18 -7.26446e-23 -13.9854)
(3.48655e-16 7.9676e-16 -2.20048)
(-2.68291e-19 4.30995e-19 -10.9145)
(1.36152e-15 3.03793e-15 -12.1768)
(0 0 -21.225)
(7.21496e-16 1.41494e-15 -21.8545)
(-3.44056e-17 -3.85954e-16 12.864)
(5.68014e-16 1.22714e-15 -0.141086)
(-1.52843e-16 -4.07449e-16 -0.263809)
(-1.84818e-23 -3.13837e-23 1.97015)
(-7.39518e-16 -1.23706e-15 -21.0211)
(-7.3392e-16 -1.42447e-15 -4.62079)
(7.19052e-17 4.2148e-16 3.99763)
(3.00873e-17 6.52884e-16 -9.89985)
(-6.28946e-16 -7.89334e-16 -22.2456)
(-4.03636e-16 -5.7972e-16 -5.10233)
(7.2542e-18 3.46679e-16 -21.5816)
(-1.36134e-15 -4.71898e-15 -18.2921)
(4.27655e-20 1.14368e-19 -0.348893)
(-4.7513e-17 -4.29838e-16 13.3495)
(4.23106e-16 1.45391e-15 -29.4071)
(-4.36748e-16 -1.33182e-15 -2.33322)
(-1.86659e-16 -5.05776e-16 -0.601922)
(-3.4805e-18 -1.87881e-18 -31.9604)
(-1.49538e-18 -3.75178e-19 -10.9765)
(9.51458e-20 1.56862e-20 4.12443)
(-6.31395e-18 -1.63224e-18 -31.9732)
(1.51661e-19 -2.82028e-19 -7.84585)
(3.67389e-16 4.40218e-16 -8.34452)
(9.88876e-18 3.35368e-16 -21.4632)
(6.66593e-19 -6.44072e-19 -19.584)
(-1.71424e-16 1.46769e-15 -31.5805)
(2.13865e-19 -3.67323e-19 0.977953)
(1.74847e-16 6.73251e-16 -0.205359)
(2.56125e-16 1.39686e-15 -5.73044)
(-5.23718e-17 -4.82821e-16 14.0952)
(0 0 -39.4845)
(1.09678e-16 5.58393e-16 4.68417)
(3.18554e-16 1.56259e-15 -13.666)
(5.04778e-17 6.6556e-16 -37.6659)
(2.72434e-19 4.69537e-19 -11.0706)
(6.04885e-18 -3.70554e-17 -5.72966)
(1.55954e-17 2.76999e-16 -20.5492)
(1.87802e-18 -3.8985e-19 -19.134)
(2.98591e-17 1.41192e-15 -6.56667)
(3.61308e-16 -1.4589e-15 -26.0781)
(2.54026e-18 -2.6893e-17 15.0182)
(-1.43074e-16 -7.67211e-16 0.962011)
(-2.30552e-16 -1.15732e-15 0.529901)
(-1.08456e-19 -5.78657e-22 -36.5859)
(-9.35785e-17 -6.70478e-16 5.46901)
(2.45236e-17 1.58294e-15 -13.7461)
(-2.47535e-19 -1.04798e-19 -4.05421)
(4.35721e-16 -1.36706e-15 -35.701)
(2.16548e-20 3.77314e-20 -12.1604)
(6.81959e-20 -2.57831e-19 -19.0508)
(-1.13942e-15 3.09496e-15 -13.7076)
(0 0 -2.77734)
(1.25172e-16 8.02663e-16 2.39584)
(4.7001e-19 4.38037e-23 -5.52888)
(4.73989e-17 5.60298e-16 15.9273)
(2.26838e-18 1.31059e-18 -16.3423)
(-4.06485e-16 1.53829e-15 -11.8475)
(6.87373e-19 -1.37798e-19 6.40403)
(-9.53809e-19 1.62236e-18 -26.2488)
(-5.36913e-16 7.80645e-16 -27.1193)
(-6.03474e-23 1.02395e-22 -12.4792)
(-7.49734e-17 -3.88275e-16 -2.7504)
(9.48047e-20 8.44237e-25 -17.326)
(-6.64707e-16 1.5274e-15 -7.87385)
(5.74482e-18 -1.88326e-17 16.6817)
(-2.16979e-19 3.72673e-19 -4.62044)
(5.13896e-16 -1.29792e-15 -2.83986)
(-2.54642e-19 4.39525e-19 3.52985)
(1.57564e-15 -2.83493e-15 -8.3869)
(-5.24024e-16 1.51494e-15 -7.43023)
(-6.50791e-17 -7.4851e-16 7.11031)
(7.23201e-16 -1.26385e-15 -15.3026)
(-2.1834e-19 3.43628e-19 -1.84585)
(2.42759e-20 -3.98838e-20 -11.9359)
(-5.24068e-19 1.69201e-18 -17.6065)
(1.90732e-17 1.24115e-16 -15.7965)
(1.62806e-15 -2.95239e-15 -2.87999)
(2.00415e-19 3.25687e-19 17.2588)
(8.13042e-16 -1.42325e-15 -3.28996)
(-2.0862e-16 1.15709e-15 -4.37494)
(5.05685e-17 8.98206e-16 4.60016)
(-6.56079e-16 1.22498e-15 0.894993)
(2.05845e-18 7.30494e-19 -8.70599)
(3.03474e-17 7.95261e-16 7.38847)
(-5.82342e-17 -2.51215e-17 -3.0853)
(0 0 -10.5487)
(2.23863e-19 1.29795e-19 -11.0829)
(-2.74383e-17 -2.76108e-16 -1.48316)
(2.4815e-15 -4.41826e-15 0.745329)
(-1.26485e-17 -1.03252e-16 -14.7262)
(1.6748e-17 9.2056e-16 5.11181)
(3.49398e-23 5.93358e-23 -2.00885)
(9.42334e-18 6.63847e-16 17.5382)
(0 0 2.48214)
(-5.06755e-17 -3.71469e-17 3.13644)
(2.07131e-17 1.2039e-17 1.45863)
(6.16134e-18 8.07079e-16 7.50518)
(1.5124e-15 -2.69052e-15 -2.25386)
(5.50799e-19 -6.57031e-24 -1.53767)
(0 0 -7.45606)
(6.46901e-16 -1.04237e-15 -5.15494)
(-2.39906e-18 -8.4759e-17 -14.3612)
(1.56709e-15 -2.98258e-15 8.30358)
(-2.27067e-18 -4.15123e-22 7.55296)
(3.68308e-18 -6.67203e-16 17.4306)
(2.41296e-17 -9.24901e-16 3.81123)
(1.15009e-19 -2.17232e-19 1.80277)
(-1.52772e-19 -8.88761e-19 1.93598)
(-7.41336e-16 1.15253e-15 8.56889)
(-7.66741e-19 -4.01031e-19 7.65804)
(-8.29284e-16 1.40432e-15 6.28649)
(5.5337e-16 -1.14218e-15 -0.964884)
(-6.07463e-19 1.84317e-19 -2.2899)
(-7.95946e-21 1.64504e-20 -4.06232)
(-3.44984e-19 -9.57632e-20 -14.6849)
(1.20793e-15 -3.0677e-15 16.8121)
(-5.85554e-16 7.95803e-16 6.16327)
(-1.18876e-16 8.58236e-16 1.64978)
(-1.79401e-17 6.56654e-16 17.0571)
(-3.34259e-16 1.57411e-15 13.1425)
(2.61527e-19 4.21696e-19 7.10392)
(8.03488e-17 6.85164e-18 16.5977)
(7.55194e-16 -1.07981e-15 15.1082)
(-9.66972e-16 2.93951e-15 5.77204)
(5.5622e-17 -3.38252e-16 -3.5845)
(3.3962e-16 -1.26703e-15 0.53353)
(2.98928e-16 -7.384e-16 -2.3437)
(2.05943e-16 -1.57778e-15 22.9756)
(1.05763e-17 -1.12686e-16 -15.3583)
(-2.44156e-18 9.09862e-19 26.3019)
(-5.56187e-19 -3.83384e-19 0.0116946)
(3.33761e-17 -6.3146e-16 16.3592)
(5.74961e-16 -7.31007e-16 12.0565)
(-6.52693e-17 7.67772e-16 5.84903)
(1.8856e-16 -1.58002e-15 14.3477)
(7.26678e-19 2.31247e-18 26.7237)
(4.36754e-16 -2.60089e-15 1.8588)
(-2.29017e-16 8.52757e-16 -2.66257)
(6.28409e-17 -4.01036e-16 -5.10052)
(-1.86488e-16 1.66198e-17 24.9313)
(-1.88149e-16 1.50881e-15 8.90451)
(1.40842e-17 -1.51707e-16 -16.23)
(-1.24448e-18 -2.13224e-18 31.9641)
(5.29715e-19 3.6478e-19 15.1578)
(-2.33094e-16 6.42399e-16 -0.590373)
(-1.18154e-18 4.08688e-22 17.1769)
(2.76532e-16 1.53491e-15 13.836)
(-1.8622e-17 -4.2292e-17 4.44248)
(4.20294e-16 -9.49315e-16 39.7612)
(-5.75857e-23 -9.92023e-23 -3.5269)
(1.68735e-19 2.8912e-19 4.29662)
(3.28847e-16 -5.90779e-17 20.7513)
(5.94172e-17 -4.65046e-16 -6.53996)
(-8.77871e-17 -1.48745e-15 10.389)
(5.96143e-16 2.91517e-15 29.915)
(-2.44188e-19 1.58792e-19 -17.1795)
(-1.46393e-18 -2.53758e-22 23.424)
(-6.28774e-16 -2.48601e-15 41.2471)
(-1.32181e-19 -1.07405e-19 0.0706675)
(6.25679e-17 -5.26984e-16 13.8426)
(9.6996e-18 5.12221e-17 3.5498)
(-1.19439e-16 3.76977e-17 10.3925)
(7.21398e-20 3.60557e-24 -7.73065)
(3.31518e-19 2.67122e-22 4.72594)
(0 0 -3.377)
(1.39491e-15 2.97877e-15 12.1192)
(-1.35924e-17 2.39167e-16 -18.0963)
(-1.3041e-18 -1.47651e-19 9.11309)
(2.82135e-18 5.27697e-19 20.6177)
(-5.74643e-16 -1.24945e-15 28.8143)
(0 0 25.688)
(-2.10764e-16 3.97343e-16 1.7806)
(6.65371e-17 -4.92413e-16 12.7094)
(-8.15364e-16 -1.36238e-15 5.67332)
(-1.39789e-16 4.62287e-16 3.27024)
(8.51591e-20 5.98504e-19 2.93911)
(9.54738e-18 1.00922e-15 -1.69016)
(2.77487e-17 -5.79943e-16 -8.71308)
(-7.86242e-20 2.2944e-18 5.40623)
(-5.79459e-16 -1.35199e-15 5.50666)
(-1.05958e-17 2.73289e-16 -18.8766)
(7.74582e-16 1.41313e-15 11.0682)
(-1.58976e-15 -2.54286e-15 17.5268)
(1.48987e-23 -2.57841e-23 11.9323)
(1.27621e-19 2.28852e-19 22.452)
(2.33233e-19 2.58376e-19 3.91307)
(6.0859e-20 1.69124e-19 3.29836)
(9.18545e-16 1.30442e-15 1.38944)
(-5.64446e-16 -1.03997e-15 -0.150242)
(-2.95304e-19 -5.08684e-19 0.0726227)
(1.71054e-17 1.77752e-18 0.112526)
(-1.99662e-20 -6.24345e-20 -9.58641)
(-1.75871e-15 -2.82585e-15 4.41482)
(-4.56033e-19 -1.39433e-23 -19.6112)
(2.36706e-18 -7.66736e-19 1.73059)
(-1.42608e-19 -6.07562e-19 5.48833)
(-8.45254e-16 -1.30616e-15 9.98098)
(-8.49903e-19 5.32323e-22 17.0524)
(1.76504e-19 -3.0542e-19 11.6605)
(1.83126e-15 2.61311e-15 -4.15855)
(-1.05133e-19 -4.64143e-19 3.57428)
(-1.40098e-17 -7.07749e-17 22.5778)
(9.31406e-16 1.44109e-15 -4.69246)
(-1.13991e-15 -1.00824e-15 5.07604)
(5.08422e-18 -6.09696e-16 -10.4695)
(6.1164e-19 -8.08441e-19 0.783738)
(2.95153e-20 5.05722e-20 -4.09629)
(7.97275e-16 1.22993e-15 -2.94818)
(8.92066e-16 1.45517e-15 0.237301)
(-5.28928e-19 -1.81793e-23 -20.351)
(-1.02404e-15 -8.89543e-16 -12.3636)
(0 0 11.7995)
(-2.92584e-17 3.15368e-16 11.6564)
(1.69666e-18 -6.67849e-19 4.02937)
(1.77977e-17 2.84897e-16 5.81084)
(-2.32905e-18 3.11909e-18 -11.1858)
(-2.73966e-17 3.07645e-16 3.98214)
(0 0 -9.74714)
(-1.43691e-19 4.83902e-19 -13.7144)
(-5.14904e-16 -1.56643e-15 0.280322)
(-1.23338e-17 -6.15501e-16 -11.2698)
(2.71221e-15 2.65057e-15 24.6494)
(-8.77474e-16 -1.15229e-15 -9.65822)
(-4.68084e-17 4.51449e-17 -5.85795)
(1.59305e-18 3.08973e-16 -21.1015)
(7.83106e-16 1.44234e-15 0.467434)
(1.36279e-18 1.35866e-17 81.112)
(2.01793e-17 6.07568e-16 11.6331)
(1.1396e-22 -1.95737e-22 7.06311)
(1.17576e-19 2.04826e-19 5.04169)
(5.43159e-16 5.59503e-16 71.3589)
(1.29949e-17 4.37638e-17 99.5212)
(-8.92705e-16 -1.25127e-15 -24.8333)
(-1.97497e-19 3.45256e-19 4.05838)
(1.74856e-17 6.13514e-16 -11.1811)
(1.65701e-19 2.85403e-19 -1.07442)
(9.00251e-19 -1.52769e-18 -16.9339)
(-3.98826e-16 -2.92747e-16 152.605)
(2.27926e-17 9.52666e-17 13.1791)
(-1.29606e-15 -3.20469e-15 -24.6237)
(5.35741e-17 6.80214e-17 129.756)
(-5.27914e-18 -2.9853e-16 -21.8535)
(8.82164e-16 1.07017e-15 -19.4773)
(-1.01901e-15 -8.52592e-16 46.136)
(6.49549e-16 1.62713e-15 -12.9438)
(-1.91654e-16 -4.16344e-16 4.062)
(2.06403e-16 1.57693e-16 575.905)
(8.61225e-23 2.45871e-22 3.07942)
(1.28983e-17 1.99315e-17 11.727)
(5.75428e-16 1.59482e-15 -4.67012)
(-9.30094e-17 -3.64014e-16 3.94372)
(-1.46888e-15 -1.25295e-15 399.656)
(6.13526e-16 4.30774e-16 108.765)
(-5.11562e-21 3.71656e-21 -39.8943)
(1.07613e-18 -1.8328e-18 -31.7601)
(1.40373e-15 1.04789e-15 57.4109)
(0 0 -2.90098)
(9.80251e-16 1.0629e-15 -22.2564)
(-6.78088e-16 -5.46941e-16 471.948)
(-3.75305e-17 -6.70849e-17 834.766)
(2.69643e-17 5.95844e-16 -9.85325)
(5.14792e-16 1.66839e-15 -20.8622)
(6.84441e-18 -7.63902e-18 765.654)
(7.07938e-19 4.8202e-19 -22.4014)
(6.2133e-16 9.35825e-16 -34.3825)
(4.57456e-19 3.50312e-22 1.60139)
(3.14755e-16 1.66857e-15 -11.0634)
(1.11904e-16 7.56718e-16 12.2368)
(2.2594e-16 5.32487e-16 3.2839)
(4.34699e-17 -1.23472e-15 -48.3731)
(8.04917e-16 6.72877e-16 402.207)
(0 0 706.921)
(1.25631e-16 4.43165e-16 4.01976)
(7.86938e-16 5.91005e-16 757.328)
(2.41022e-16 -1.65032e-15 -32.4182)
(3.80854e-19 1.49844e-19 -7.79855)
(-2.97323e-19 -3.82679e-19 -4.56566)
(1.0337e-18 1.77108e-18 -26.4439)
(2.62566e-16 8.84699e-17 1144.01)
(-1.68453e-16 -2.28893e-17 810.669)
(6.8899e-17 1.86606e-18 695.523)
(1.86967e-16 -1.20182e-18 -23.0474)
(-8.49819e-16 -6.11989e-16 430.599)
(1.29515e-15 1.07814e-15 -6.15653)
(-1.44652e-19 2.4534e-19 -22.4175)
(-2.14391e-16 -8.85495e-16 -47.1674)
(-2.03856e-16 -7.20025e-16 3.01304)
(1.2468e-16 8.82694e-16 13.1494)
(-1.70932e-16 -7.24872e-17 1235.44)
(1.60006e-16 1.69321e-15 -13.313)
(2.70362e-16 1.3094e-15 0.612044)
(0 0 1201.37)
(-5.80504e-18 5.06e-17 4.748)
(5.95794e-16 5.64074e-16 968.624)
(-2.1019e-15 -1.54958e-15 13.0427)
(3.14274e-17 4.49508e-17 1001.75)
(-2.93397e-16 1.23332e-15 -42.1331)
(-4.31912e-17 1.85459e-17 -3.71967)
(2.37472e-18 9.6863e-19 -27.6584)
(0 0 -5.99195)
(-1.26796e-19 -1.50959e-23 -5.76806)
(-1.44836e-18 -2.03314e-18 -25.4056)
(8.82212e-18 4.23447e-17 1085.44)
(1.22259e-16 1.5882e-17 1144.41)
(8.19347e-18 -1.38674e-17 466.169)
(6.56227e-17 -2.23827e-17 681.463)
(1.09251e-17 2.40294e-16 -21.7567)
(-9.21862e-17 -5.97109e-17 698.556)
(5.80923e-16 -3.38684e-15 -21.9406)
(3.89948e-17 -8.93175e-16 -48.7459)
(5.69561e-16 -9.43027e-16 17.2066)
(-1.85322e-16 -7.71815e-16 3.69942)
(-5.36305e-17 2.55501e-18 84.7448)
(0 0 -13.5394)
(-3.60424e-16 -3.43545e-16 -2.98393)
(-1.45676e-15 2.51743e-15 7.31579)
(4.14787e-19 -3.54057e-19 -2.05496)
(-4.70445e-16 7.71917e-16 -3.68592)
(-6.09355e-17 -4.89552e-16 14.3199)
(1.19365e-16 6.31494e-16 5.95781)
(-6.77905e-16 1.22881e-15 -28.0206)
(-5.49379e-16 -3.3895e-16 -4.92732)
(4.84585e-16 -7.57164e-16 -19.5739)
(7.97589e-16 -9.44478e-16 -24.6178)
(1.20995e-15 8.36221e-16 207.395)
(3.84713e-20 4.98654e-19 -6.48315)
(-8.09025e-16 1.52474e-15 -15.924)
(0 0 475.49)
(-4.74404e-20 7.63419e-24 -4.25152)
(-2.50692e-16 -1.84694e-15 -439.525)
(-2.99037e-18 -1.19983e-21 -37.0442)
(1.19215e-15 -1.85069e-15 -48.1374)
(6.58258e-16 -1.60154e-15 -15.0015)
(-2.22488e-17 -3.97827e-16 -20.547)
(-9.06059e-17 -1.84994e-16 -473.13)
(4.90969e-17 5.48478e-16 15.5665)
(0 0 -3.0733)
(-4.23269e-16 7.18431e-16 -61.4777)
(1.38613e-16 8.64573e-16 5.26938)
(5.85334e-16 -1.56737e-15 -9.46025)
(-2.97469e-17 9.67613e-18 -15.2667)
(9.76894e-17 1.38719e-16 825.019)
(-7.7477e-17 -7.46022e-16 7.51385)
(4.20878e-17 2.24586e-17 -158.877)
(9.10111e-17 -6.59567e-17 1231.74)
(-4.40635e-17 5.25668e-17 1029.98)
(6.3827e-17 1.18677e-16 389.123)
(1.0196e-15 8.53012e-16 581.508)
(2.44689e-22 -4.14863e-22 -6.17509)
(5.56356e-16 4.1604e-16 212.763)
(2.48389e-16 1.48707e-16 36.783)
(1.94066e-17 1.12633e-17 -79.8639)
(8.60723e-16 -1.50065e-15 -8.97845)
(3.02073e-17 3.88606e-16 -3.27453)
(-9.14933e-16 1.71552e-15 -433.051)
(1.16805e-15 -1.19293e-15 -18.0696)
(-2.74765e-17 2.7607e-17 -0.153931)
(4.5739e-18 -3.56199e-18 -22.3502)
(-2.44046e-17 8.97278e-18 1026.87)
(-7.47171e-16 1.55852e-15 -8.42272)
(-2.76383e-20 7.88526e-21 -19.242)
(7.87483e-16 -1.28242e-15 -251.688)
(0 0 -2.85062)
(-2.76294e-17 -6.14916e-16 16.7941)
(6.41224e-19 2.09746e-22 7.08794)
(-7.40929e-17 -4.3249e-17 -3.32932)
(6.65018e-17 2.38041e-17 -190.99)
(-3.53864e-18 2.90937e-17 -162.472)
(9.54987e-16 9.36696e-16 -1.42658)
(5.20529e-17 7.97254e-16 9.0099)
(1.92491e-17 -2.95133e-17 -65.5193)
(-2.6938e-15 3.80215e-15 -8.18935)
(3.54915e-19 1.1742e-19 -2.75034)
(-2.89305e-16 5.07461e-16 -489.638)
(2.33751e-16 -2.71059e-17 -259.458)
(-6.7917e-19 -1.16368e-18 -11.3004)
(2.56373e-16 -3.69107e-16 -5.06465)
(-4.33407e-16 -1.23533e-16 1092.2)
(1.81979e-15 1.65277e-15 62.4089)
(-7.46333e-19 -9.67786e-19 -3.3745)
(-1.8174e-16 -1.05156e-16 844.499)
(-6.68979e-18 -1.48649e-16 -18.2445)
(-1.70866e-16 1.28107e-16 672.042)
(9.08293e-16 9.60807e-16 -3.56771)
(5.44713e-17 9.45244e-16 -367.827)
(5.56557e-18 5.79547e-17 -225.889)
(-8.49906e-16 1.05176e-15 -12.6244)
(3.82188e-16 2.01577e-16 1028.36)
(-2.93588e-17 -2.39145e-17 -2.99885)
(2.52868e-16 2.76761e-16 660.279)
(-5.50454e-20 3.34896e-18 1.6839)
(-6.39483e-16 1.17776e-15 -598.4)
(-5.38994e-16 -3.10417e-16 648.642)
(-3.74196e-19 6.2261e-19 7.29845)
(2.18804e-17 6.29283e-16 17.8711)
(4.35287e-16 -1.20367e-15 -0.963213)
(6.12031e-16 -1.18168e-15 -256.205)
(-4.37208e-16 8.06822e-16 -229.368)
(6.98254e-16 6.91361e-16 -3.84457)
(-5.74608e-16 5.5965e-16 -952.515)
(2.64838e-17 8.30653e-16 10.0817)
(1.72762e-15 -2.59721e-15 -0.937806)
(1.15663e-17 -5.0349e-18 -207.185)
(6.68172e-20 -1.29704e-18 -2.81219)
(6.26454e-16 -8.88157e-16 -5.25702)
(5.12853e-16 1.56586e-16 473.204)
(-5.49547e-17 3.13551e-16 -392.904)
(-5.29247e-17 2.81475e-17 9.91377)
(6.58333e-17 1.78335e-16 -1100.65)
(-1.61828e-17 3.66129e-16 -2.98908)
(-8.36923e-16 -6.17842e-16 5.33354)
(8.75511e-16 8.98702e-16 -0.537837)
(1.09235e-15 -1.94898e-15 -548.266)
(-2.70689e-16 -1.12022e-15 -475.758)
(-7.92594e-16 1.88447e-15 1.61036)
(-1.73505e-15 2.95847e-15 1.864)
(-1.23121e-19 8.99366e-19 0.516503)
(7.2292e-16 4.10331e-16 124.563)
(2.70124e-16 4.45582e-18 -60.4406)
(-7.8672e-16 1.5012e-15 -484.536)
(-3.88789e-17 -2.69844e-16 127.169)
(4.59056e-16 4.61308e-16 6.75274)
(0 0 -1.23434)
(-1.6066e-16 -4.63781e-17 -40.7333)
(-4.80031e-16 5.53014e-16 -1304.49)
(-8.33732e-16 1.12141e-15 -5.8011)
(1.28821e-18 1.36794e-16 -17.6466)
(-1.05105e-15 -4.63037e-16 33.7159)
(1.84728e-16 7.55091e-17 -91.5867)
(-1.32878e-16 2.39735e-17 -882.859)
(1.23389e-15 -2.79013e-15 -4.58657)
(8.95993e-16 -1.44595e-15 0.896095)
(6.36529e-17 -1.94658e-17 3.05155)
(-7.37856e-18 -6.51007e-16 18.6677)
(1.72769e-19 2.94206e-19 2.02792)
(9.74293e-17 4.66245e-17 -77.8147)
(1.22511e-15 5.26205e-16 311.957)
(1.74729e-16 3.10341e-17 -563.854)
(-1.38779e-16 -1.39236e-15 -448.242)
(-4.41928e-18 5.16444e-18 6.9677)
(1.89272e-16 4.35632e-17 -95.6619)
(8.41147e-16 4.34807e-16 670.534)
(-2.244e-16 2.93635e-16 -1108.99)
(-2.3005e-16 -2.2107e-16 -1870.18)
(-8.00663e-16 -7.19126e-16 -1.05196)
(-4.28883e-16 -4.62149e-16 674.324)
(-4.25268e-16 -4.36561e-16 -4.41876)
(-1.66985e-17 1.99968e-15 4.51308)
(8.32748e-17 1.49673e-16 753.492)
(4.47957e-17 6.21623e-17 942.772)
(-4.89041e-16 7.15027e-16 -545.2)
(1.11315e-16 -3.10465e-17 6.50138)
(7.66106e-16 -1.68174e-15 -1414.17)
(7.16953e-17 -6.59893e-16 -1270.48)
(6.556e-16 -1.39397e-15 4.14623)
(1.27654e-17 -5.36859e-17 -1477.7)
(-2.42203e-16 -1.31031e-16 -3.68018)
(-1.55619e-17 -8.44894e-16 10.8894)
(1.49501e-17 1.52737e-18 -51.0401)
(5.06826e-16 -1.01084e-15 0.203587)
(-5.54308e-17 9.21007e-17 -1820.04)
(8.95945e-18 -1.54447e-17 -3.78926)
(1.516e-15 -3.0689e-15 5.74845)
(-6.03408e-16 -6.35676e-16 -2.58622)
(-2.18555e-15 4.86704e-15 -57.0568)
(-1.2767e-16 1.12577e-16 -62.6699)
(7.31392e-19 -1.16849e-18 0.299155)
(-8.07299e-17 1.66457e-16 -1809.74)
(-7.68988e-16 1.21088e-15 -1078.08)
(1.29941e-15 -1.63274e-15 -1103.33)
(-3.14067e-16 3.44563e-16 -227.35)
(2.0945e-16 3.26809e-16 293.076)
(-4.29958e-16 3.74493e-16 -1470.97)
(1.14117e-15 -2.55533e-15 -917.314)
(-1.2358e-17 2.94776e-16 -17.4169)
(8.84541e-16 -1.46149e-15 5.98666)
(-5.36262e-18 -9.34932e-19 -45.9731)
(-2.94921e-18 5.03639e-18 0.58339)
(-1.5206e-16 -2.95356e-16 -1571.22)
(1.0978e-18 -1.81195e-18 5.34474)
(4.76511e-18 -6.7545e-18 11.3098)
(6.77719e-17 -9.68456e-16 1.16223)
(1.4206e-16 -2.48358e-16 -1766.26)
(4.11801e-17 1.6198e-16 -96.533)
(-2.05479e-17 1.32481e-15 19.2438)
(1.26144e-15 -3.21946e-15 12.9256)
(-1.30989e-17 7.80804e-18 -1153.19)
(1.47051e-16 1.23312e-16 -1507.16)
(-2.57201e-16 5.93756e-17 408.619)
(-7.38339e-17 -6.7306e-17 2.95334)
(-6.20712e-16 4.81491e-16 -1462.05)
(-1.02731e-15 2.92005e-15 5.40764)
(8.90981e-18 -2.20081e-18 -38.251)
(3.8633e-16 3.78095e-16 413.996)
(-3.05795e-17 8.49315e-16 9.86341)
(-3.3077e-16 2.7508e-16 -1556.26)