/*--------------------------------*- C++ -*----------------------------------*\
  =========                 |
  \\      /  F ield         | OpenFOAM: The Open Source CFD Toolbox
   \\    /   O peration     | Website:  https://openfoam.org
    \\  /    A nd           | Version:  8
     \\/     M anipulation  |
\*---------------------------------------------------------------------------*/
FoamFile
{
    version     2.0;
    format      ascii;
    class       volVectorField;
    location    "0";
    object      U;
}
// * * * * * * * * * * * * * * * * * * * * * * * * * * * * * * * * * * * * * //

dimensions      [0 1 -1 0 0 0 0];

internalField   nonuniform List<vector> 
16200
(
(0.98011073 0.026253219 9.0874682e-22)
(0.94776689 -0.048484385 8.0565106e-21)
(1.0866774 -0.047512258 0)
(1.2079885 -0.12184722 -5.58154e-21)
(1.0529507 0.0685883 -1.0155898e-20)
(1.2083542 -0.011731009 0)
(1.3982031 -0.058400546 -2.9698804e-20)
(1.453875 -0.13463175 0)
(1.4991057 -0.022624855 -9.9177326e-21)
(1.3518607 -0.17104783 6.331863e-21)
(1.3626244 0.06742984 1.0362302e-20)
(1.5389026 -0.097897341 5.0128042e-21)
(1.6055384 -0.26218587 -4.3698364e-21)
(1.4965578 -0.22210733 0)
(1.4951545 0.05996309 -6.9622368e-21)
(1.5784844 -0.17083307 0)
(1.6027359 -0.12320438 -1.4504458e-21)
(1.5431951 -0.012256084 5.0627561e-21)
(1.3639657 0.10464003 0)
(1.6073533 -0.14087399 0)
(1.3910985 -0.12181272 -5.4685071e-21)
(1.5401255 0.12823103 0)
(1.1379676 0.1306934 3.7464128e-21)
(1.5405366 -0.017744174 5.3693554e-21)
(1.464035 -0.18130825 4.0758665e-21)
(1.59788 0.015491716 3.1973077e-21)
(1.5898964 -0.23960146 8.3504494e-22)
(1.5594715 -0.14696582 3.4922068e-21)
(1.0965564 -0.023418326 -5.1474487e-21)
(1.6162511 -0.27307652 1.3813645e-21)
(1.5206874 -0.20038052 0)
(1.5901591 0.11941393 -1.5937178e-21)
(1.4760539 -0.23307721 -4.2801733e-21)
(1.2596605 0.021617151 1.0550621e-21)
(1.5612268 -0.27647821 8.5004759e-22)
(1.4860131 -0.00019588014 -2.4467667e-21)
(1.3079595 0.084510051 0)
(1.4345186 0.089377692 0)
(1.0339514 0.065445871 1.435161e-21)
(1.0132747 0.039850351 0)
(1.0856711 -0.051307778 8.8134292e-21)
(1.5995127 -0.28111508 1.8554276e-23)
(1.5274045 0.084021759 0)
(0.84833993 0.042668918 0)
(1.1741232 -0.11175643 -1.7194082e-20)
(1.009565 0.019173744 5.6510386e-21)
(0.67088701 0.022432509 0)
(1.2711918 -0.17768769 0)
(0.79596285 0.012418688 1.743655e-21)
(0.86279098 0.050814579 -5.7392143e-21)
(1.3653132 -0.22433866 4.2037839e-21)
(0.91574133 0.08828004 -9.6001405e-23)
(0.58297514 0.041661706 7.1906051e-23)
(0.82152249 -0.045665772 -5.0287915e-21)
(1.4714113 -0.27198866 0)
(0.68091909 0.045924471 3.2977739e-21)
(0.79131992 0.02259116 -5.1754729e-21)
(0.66154946 -0.0044921851 8.3578557e-21)
(1.5479991 -0.28623083 1.2881717e-20)
(1.3826707 -0.24421315 -2.9374158e-21)
(0.54831639 -0.018780851 -2.4248098e-21)
(0.99516527 -0.10968923 0)
(0.69661576 0.0331808 -5.0008943e-21)
(0.96888852 -0.086776761 0)
(1.6170172 -0.29207569 9.3128794e-22)
(0.84174616 -0.069280028 -4.1130058e-22)
(1.1284033 -0.13329679 7.0181882e-21)
(0.6982591 -0.038476929 3.5380167e-21)
(1.6058382 -0.28436122 -2.9701903e-21)
(0.10486213 -0.01573988 1.0532212e-27)
(1.1581421 -0.15355195 0)
(1.441388 -0.23297531 0)
(0.32963431 0.0027065538 -1.1610219e-21)
(0.64400356 -0.0063288434 -1.1603202e-20)
(0.39242274 0.0090415741 1.7060736e-21)
(1.2839684 -0.18121965 -3.0341863e-22)
(0.44707493 0.017227458 1.5847596e-22)
(1.41922 -0.23074505 0)
(0.22032921 0.0093904337 2.2335683e-22)
(1.6238322 -0.27616191 0)
(1.2027335 -0.22276333 -7.2789587e-21)
(1.1204388 -0.1543812 0)
(0.93083347 -0.044415086 1.5980349e-22)
(0.29795205 -0.0047721283 8.50843e-23)
(0.91112022 -0.094512411 -6.6759553e-21)
(1.5427511 -0.26973979 -1.3889693e-21)
(0.39306015 0.0008253913 0)
(1.2223152 -0.20501584 -2.7215473e-21)
(1.0325259 -0.095657907 0)
(0.77408399 -0.019839756 1.0615645e-20)
(1.584572 -0.27747302 2.2709999e-22)
(1.1307326 -0.14823752 -1.9037281e-22)
(1.3505101 -0.25263878 -1.6207496e-21)
(1.5139585 -0.24759863 -7.9114295e-21)
(1.5225983 -0.230524 1.1849601e-20)
(1.3288342 -0.2422492 3.2081986e-22)
(1.4496116 -0.26875364 5.2989255e-21)
(1.4280864 -0.2438226 3.7229546e-22)
(1.1664158 -0.20271514 0)
(0.44472449 -0.014734002 8.1361523e-22)
(0.85975515 -0.10929754 2.4858082e-21)
(1.6204125 -0.19725798 -4.294102e-21)
(0.20756355 -0.0055629971 2.3058589e-22)
(0.21722582 -0.0037188279 0)
(1.1737675 -0.15418896 -5.4505753e-22)
(0.6623257 -0.040108958 0)
(1.5197518 -0.16468324 -2.2636602e-22)
(0.29886164 -0.0098580516 -9.8212111e-22)
(1.5380872 -0.21821714 1.2039753e-20)
(0.49838065 -0.021121206 1.3567428e-21)
(1.41183 -0.19552336 -1.9934582e-20)
(1.6279683 -0.22843758 3.3838084e-21)
(1.1355851 -0.16458165 1.7323401e-20)
(0.43065217 -0.019337496 0)
(0.80925616 -0.11098081 0)
(0.19500313 -0.0069357561 6.5440412e-21)
(1.6233651 -0.11820756 -9.6752456e-21)
(1.5231247 -0.079597447 0)
(0.68114354 -0.049434295 6.0102764e-21)
(1.2208362 -0.15317424 0)
(1.5452313 -0.15815874 1.5457885e-20)
(0.30637755 -0.013598725 0)
(1.4034335 -0.12586936 -2.4133305e-20)
(0.50876718 -0.028445133 -6.1292287e-22)
(1.6298057 -0.157129 5.3307111e-21)
(0.41278515 -0.022253949 0)
(1.1131318 -0.10917895 -2.3409566e-20)
(0.76529147 -0.099334475 -2.0300179e-20)
(0.17983159 -0.0075636649 6.6606696e-23)
(1.6265044 -0.022353754 4.5316772e-21)
(1.5311675 0.020645071 -1.3457665e-22)
(1.5397151 -0.078334278 0)
(0.70366358 -0.053805339 0)
(1.2662248 -0.14143141 1.9891127e-20)
(0.31884044 -0.015674493 -5.0713883e-21)
(1.403318 -0.037451276 -2.542259e-20)
(0.5240312 -0.032489157 0)
(1.6306798 -0.070304607 -7.1466201e-21)
(1.102604 -0.03933629 -2.8393414e-20)
(0.39197192 -0.022991867 1.3254835e-22)
(0.73124665 -0.076485491 0)
(1.6284407 0.08152849 -4.1478381e-21)
(0.16301786 -0.0074640836 -1.9230199e-21)
(1.2976077 -0.1121837 -1.8325893e-22)
(1.5426012 0.12334462 1.974985e-20)
(0.72834942 -0.053882525 1.1800461e-20)
(1.5254793 0.011043631 -1.588999e-23)
(0.33470186 -0.016085453 7.1492691e-21)
(1.4119817 0.061110905 9.081653e-23)
(1.6293219 0.029434423 4.2900205e-21)
(0.54259941 -0.033481867 0)
(1.1070767 0.037381778 -2.7040795e-20)
(0.70926901 -0.045457157 -3.676884e-20)
(0.37010896 -0.021243834 -3.7507958e-21)
(1.627779 0.18014421 -2.1014001e-21)
(0.14615993 -0.0066204784 -3.3411462e-21)
(0.35230217 -0.015035612 1.3692749e-20)
(0.75372247 -0.05008192 -2.6874005e-22)
(1.5031839 0.1007354 1.9845579e-20)
(1.3044127 -0.062162346 1.0422603e-22)
(1.5584265 0.21606047 -1.4158037e-20)
(1.6241028 0.12930438 -1.0796041e-20)
(0.56287819 -0.031710285 -1.6179533e-20)
(1.4296947 0.1546817 -3.947461e-23)
(1.1269722 0.11062338 0)
(0.70130898 -0.0096023395 0)
(0.34952341 -0.016991773 6.9234779e-23)
(0.13096117 -0.0049882778 0)
(1.6243731 0.26134416 -1.74179e-21)
(0.36985676 -0.012747886 3.3340707e-20)
(0.77815109 -0.042597223 -2.0680752e-20)
(1.5780822 0.28722573 -1.8175357e-20)
(1.2866361 0.0023007024 2.7553322e-20)
(1.4746944 0.17967699 1.8145381e-20)
(0.58316212 -0.027441517 1.803425e-20)
(1.4558633 0.23244725 -1.5027103e-20)
(1.6140192 0.21770395 5.6402299e-21)
(1.1601101 0.17176505 1.9430956e-20)
(0.70783711 0.02694664 1.7056175e-20)
(0.3325777 -0.010569921 1.0560573e-20)
(1.6186652 0.31687169 -3.9859706e-23)
(0.11910208 -0.0026476947 9.6763376e-21)
(1.250835 0.06976233 0)
(0.79988498 -0.031636101 2.4019595e-20)
(1.5967054 0.33161588 -3.8635285e-21)
(0.38563559 -0.0094493991 3.9015465e-23)
(1.4422513 0.23935145 -1.4463262e-20)
(1.5986023 0.28380757 1.4991501e-25)
(0.60161028 -0.020913624 2.3229902e-20)
(1.4887453 0.28906211 1.1691167e-20)
(0.32131139 -0.00258906 -1.2626691e-20)
(1.2034853 0.21543253 7.4639593e-21)
(0.72797909 0.060213124 0)
(0.11208424 0.00020350285 -1.0738354e-20)
(1.6098926 0.33934727 1.2411863e-22)
(1.607486 0.34429001 3.1043213e-26)
(1.2040887 0.12949551 0)
(1.4081515 0.27500663 1.2042013e-20)
(0.81698083 -0.017611981 -2.7224036e-20)
(0.39808562 -0.0053707869 2.3679532e-20)
(1.5237497 0.32188387 0)
(1.5792529 0.32095572 2.6699563e-21)
(0.61636228 -0.012391111 -2.5405185e-20)
(1.2539545 0.23953283 3.0956066e-21)
(0.75933803 0.086303358 6.1879635e-21)
(0.31704916 0.0060208159 1.2472383e-20)
(1.5992812 0.33510585 -3.7402238e-22)
(0.11089558 0.0030425053 0)
(1.1521488 0.17372597 0)
(1.3742109 0.28302284 -2.1721402e-21)
(1.6100029 0.32758693 7.9407272e-21)
(0.82639785 -0.001182249 6.5659521e-24)
(0.40587911 -0.00064501976 -2.4539649e-20)
(1.5604457 0.32845628 0)
(1.5554247 0.32929194 0)
(0.62576562 -0.0022869947 0)
(1.3100911 0.24957295 -5.3441231e-21)
(0.79852041 0.10262022 -4.3029252e-26)
(0.32039918 0.01409049 0)
(0.11597583 0.0055360801 -9.6937376e-22)
(1.5877317 0.29335438 -8.0985037e-21)
(0.40809787 0.0043928969 0)
(1.3424511 0.26276478 5.1107648e-21)
(1.6071447 0.26927421 -1.2038636e-20)
(0.82480224 0.017591062 0)
(1.0999738 0.19803979 -1.1048583e-20)
(1.5747115 0.30156611 -7.1544552e-21)
(0.62876216 0.008454253 0)
(1.5391711 0.30594116 0)
(1.3679717 0.24654853 1.30834e-20)
(0.8419089 0.11001096 -1.9616866e-25)
(0.33109147 0.020651331 7.4303985e-21)
(1.5777982 0.21611218 1.2719273e-20)
(0.1267254 0.0075232488 -6.8823023e-21)
(1.0520905 0.20009008 0)
(0.8093749 0.037514267 0)
(1.6000157 0.18146992 7.8200945e-21)
(1.3166452 0.21998375 1.17861e-20)
(0.40405074 0.0093334346 0)
(0.62455643 0.019042335 0)
(1.5233099 0.24742614 0)
(1.5757028 0.23318493 -2.5680061e-20)
(1.4127234 0.21909904 1.9687203e-20)
(0.34803483 0.0250118 -2.6709928e-21)
(0.88674393 0.11004525 0)
(1.57453 0.12885187 0)
(0.14191308 0.0086693374 1.4706547e-26)
(1.0119828 0.18184185 -5.7592335e-26)
(0.39390428 0.013769071 -2.2908116e-20)
(1.592913 0.082128137 -2.0710854e-20)
(0.78014725 0.055560572 0)
(1.300958 0.16105168 -9.3488833e-25)
(1.5665128 0.14063818 3.280603e-20)
(1.5161239 0.17101478 -2.0721106e-20)
(0.6121378 0.028715543 -2.0203076e-20)
(0.36949731 0.026917703 3.3488518e-26)
(1.4286318 0.15668074 -2.5114157e-20)
(0.93100361 0.10362299 -2.2465971e-20)
(0.15993769 0.0088568068 0)
(1.5783674 0.028166434 5.5697046e-21)
(0.378323 0.017100646 0)
(1.5867883 -0.027416727 -1.3207514e-20)
(0.98082286 0.14858364 0)
(0.74093524 0.068368824 0)
(1.295235 0.090103525 -2.0900519e-20)
(1.5173266 0.084903589 -1.2029735e-20)
(1.5550859 0.036528662 1.1724095e-21)
(0.5914532 0.036430053 3.3373023e-20)
(1.4167759 0.068556905 2.9364622e-20)
(0.9731891 0.091173591 0)
(0.39354146 0.026456662 0)
(1.5858316 -0.083823383 5.104347e-21)
(0.17901488 0.0081942145 -2.9389904e-21)
(1.5796592 -0.14017703 -1.2769281e-20)
(1.3005025 0.0045111706 2.2187107e-20)
(0.3583503 0.018820995 0)
(0.95956908 0.10367062 -1.7638791e-20)
(0.69739242 0.073432547 0)
(1.5400835 -0.073771406 -4.1646712e-20)
(1.5268019 -0.018559915 9.7052883e-23)
(0.56414994 0.04091009 9.7970618e-21)
(1.3890054 -0.028763306 3.1957462e-20)
(0.41823477 0.02390265 0)
(1.0110753 0.073014913 3.2437912e-20)
(0.19739394 0.0068510356 0)
(1.5926743 -0.19480647 1.0386221e-21)
(1.3188819 -0.091534352 2.1651965e-20)
(0.94972868 0.048572158 -2.0671657e-20)
(0.33568816 0.018675859 7.5483385e-21)
(0.65530575 0.069605496 2.0430264e-21)
(1.5701983 -0.24432596 -1.31012e-20)
(1.5424859 -0.13005144 -1.1353852e-20)
(0.53337437 0.041083923 -6.9551776e-21)
(1.5209971 -0.18056615 -5.3617099e-22)
(1.3506734 -0.12498369 -3.2411934e-20)
(1.0392196 0.047041007 3.5253506e-20)
(0.44169161 0.019595518 0)
(1.5998958 -0.29160747 -8.4477633e-22)
(0.21363269 0.0050198928 2.0042871e-20)
(1.5565718 -0.32579767 -2.205674e-20)
(1.3488236 -0.18296321 1.5544967e-20)
(0.31262149 0.016510485 -3.1245573e-26)
(0.61967535 0.057476009 0)
(0.95411741 -0.014476717 0)
(1.4970612 -0.27162237 1.800212e-20)
(0.5030311 0.036498615 9.4473215e-27)
(1.5632669 -0.23372844 9.9301519e-21)
(1.3057546 -0.20871337 0)
(1.0462414 0.0093178484 0)
(0.46214707 0.013879618 -2.5439964e-20)
(0.22658018 0.0028341998 1.8338431e-25)
(1.6071564 -0.36096453 0)
(0.29172934 0.012447839 -1.9496379e-21)
(0.9749585 -0.079822326 1.7228648e-20)
(0.59371665 0.038867253 -2.2455073e-25)
(1.387684 -0.25789452 -1.2177123e-24)
(1.5395877 -0.37249549 0)
(0.47692757 0.027479026 -5.5297666e-26)
(1.5865895 -0.31904906 -6.2516414e-21)
(1.4700841 -0.33487948 -2.8795929e-20)
(0.47801661 0.0070408656 0)
(1.0250696 -0.039484282 0)
(1.2577387 -0.27005743 -3.6985407e-21)
(0.23530149 0.0003871793 2.667483e-20)
(1.6097665 -0.39197723 -3.7213749e-21)
(0.27551172 0.0068682237 -4.928294e-21)
(1.5235169 -0.38246009 -3.6767459e-21)
(1.0117084 -0.13963697 0)
(1.434979 -0.31047086 8.5274724e-22)
(0.57953897 0.015750684 1.0357161e-20)
(1.443062 -0.36418631 -9.7936733e-21)
(1.6057346 -0.37470768 5.8574301e-26)
(0.45804636 0.014965153 -7.6656992e-21)
(0.48772172 -0.0006764544 -3.1204956e-20)
(1.2101857 -0.30291988 0)
(0.9789969 -0.090292484 3.0292714e-20)
(0.23920628 -0.0020110953 2.3318845e-25)
(1.6091547 -0.38876897 0)
(1.4870146 -0.3387915 3.1109997e-21)
(1.0611622 -0.18574848 2.1839468e-25)
(1.505515 -0.35553883 3.4846725e-21)
(0.57841541 -0.009508358 -2.0060921e-20)
(0.26606234 7.9784421e-05 0)
(1.6161495 -0.39113034 -7.8043798e-22)
(1.4177221 -0.35663826 -1.6224589e-21)
(0.44845006 0.00022349339 -7.9926447e-21)
(1.1669796 -0.30320909 0)
(0.91670311 -0.13230719 -2.7338237e-20)
(0.49034143 -0.0088433838 9.8990424e-25)
(1.605395 -0.33427697 2.5752336e-22)
(0.23776174 -0.0041568936 0)
(1.4954779 -0.28257873 9.5154747e-21)
(0.26459379 -0.0070650824 -5.0935895e-21)
(1.5355428 -0.34144433 -1.0107541e-20)
(0.59052781 -0.034395628 -8.0113888e-21)
(1.1195923 -0.21239226 0)
(1.395994 -0.31314775 -1.1636674e-20)
(1.6217456 -0.37051054 3.4009609e-21)
(0.44927768 -0.015044092 6.9613954e-21)
(0.48524934 -0.016748632 -3.076966e-20)
(1.1305803 -0.27392571 -9.597448e-21)
(0.84816434 -0.15896553 1.5998227e-20)
(0.2308011 -0.0063559143 -3.0295608e-20)
(1.5993135 -0.2348603 -3.2180839e-21)
(1.1820999 -0.22368618 -1.7654494e-24)
(0.27175059 -0.013683185 -2.0275151e-21)
(1.4970448 -0.18484143 1.4796248e-20)
(1.5624894 -0.29673805 1.617275e-20)
(0.61486487 -0.055882253 -3.1501654e-21)
(1.3878661 -0.23547172 0)
(1.6203474 -0.29262981 -2.9795465e-25)
(0.46045201 -0.029066416 0)
(1.1049636 -0.22141689 0)
(0.47237631 -0.023760939 8.3823752e-25)
(0.78217724 -0.16595449 -6.8365777e-21)
(0.21848086 -0.0083075269 -2.9189687e-20)
(1.5961309 -0.12725143 1.3910235e-24)
(1.5050603 -0.080634365 1.9300605e-20)
(1.24697 -0.22298079 0)
(0.64862981 -0.071490563 -7.3505846e-21)
(1.5600635 -0.20464402 -2.1376424e-20)
(0.28691934 -0.019085858 2.8383982e-21)
(1.3927111 -0.14157336 0)
(0.48103419 -0.040257977 -1.6323096e-21)
(1.6133836 -0.18580423 -6.8614466e-21)
(1.0927654 -0.14883364 2.6695098e-20)
(0.72579339 -0.15260512 0)
(0.45183375 -0.029137001 2.6699155e-21)
(0.20118167 -0.009633259 -2.3554004e-20)
(1.5971933 -0.013141226 -1.4181089e-24)
(1.5437353 -0.092381043 -2.555392e-20)
(1.5161772 0.036997998 -1.9588134e-20)
(0.30881424 -0.022501474 3.2282935e-21)
(0.68811229 -0.080384353 1.5211273e-20)
(1.3083627 -0.20649246 2.7479697e-20)
(1.4048484 -0.033910322 0)
(0.50867679 -0.047456122 1.1909349e-20)
(1.6083109 -0.072622404 -8.4144933e-21)
(0.42462958 -0.032092392 0)
(1.0936811 -0.058035749 -5.9737339e-20)
(0.68149064 -0.12199153 1.3384096e-24)
(0.18015924 -0.010096811 0)
(1.5978084 0.10685195 -1.7648848e-21)
(1.3445288 -0.16031664 0)
(0.7302755 -0.082619498 -1.9094212e-20)
(1.5236935 0.023618426 0)
(0.33533091 -0.023627421 -1.2324704e-20)
(1.5276856 0.1587869 0)
(1.603683 0.044812863 -1.0585036e-20)
(0.54081469 -0.05022587 0)
(1.4208397 0.086858887 0)
(1.1085596 0.048872682 2.9796916e-20)
(0.65213437 -0.078271237 0)
(0.39312859 -0.031804259 1.1624542e-20)
(0.1574854 -0.0095768153 0)
(1.5962608 0.22147932 -1.8857168e-21)
(0.36392149 -0.02246839 3.4486512e-21)
(1.3427679 -0.079593973 0)
(1.5010278 0.13420306 2.9637505e-20)
(0.77249041 -0.078296384 0)
(1.5391047 0.26822081 -2.5535193e-20)
(1.5963933 0.16177898 -1.1221088e-20)
(0.57500459 -0.048602851 2.2844339e-20)
(1.4376444 0.20407554 -2.3228347e-20)
(0.36091919 -0.027647065 1.8059505e-25)
(0.64076302 -0.024175779 -2.4413747e-24)
(1.1388338 0.15810883 0)
(0.13552231 -0.0078785277 -6.3069576e-21)
(1.5930989 0.32036941 8.363146e-21)
(0.39202519 -0.019264325 8.2822622e-25)
(1.5540559 0.35374254 -8.5887826e-21)
(1.3133807 0.016621303 -4.0771424e-20)
(0.81215954 -0.067634689 -3.3357861e-20)
(1.4736851 0.23293464 -2.7685018e-20)
(1.4559425 0.29844713 0)
(0.60869634 -0.042815864 -3.2718683e-20)
(1.5870942 0.26823476 1.7788725e-22)
(0.64983027 0.034762628 0)
(1.1794586 0.24762422 -4.2289826e-24)
(0.33224852 -0.019571879 -2.8304899e-22)
(1.5904883 0.39500289 1.4011508e-20)
(0.1168232 -0.0049606257 3.5384939e-21)
(0.84738506 -0.051296911 -3.8779578e-20)
(1.2685255 0.11065592 0)
(0.41716666 -0.014428761 -3.4623427e-20)
(1.5741254 0.41325668 0)
(1.4295189 0.26616274 1.8054804e-21)
(1.5746134 0.35495098 -1.0187574e-21)
(0.63914702 -0.033221704 -3.7827393e-20)
(1.4797266 0.36488739 -1.2720879e-20)
(0.31117599 -0.0081383899 0)
(0.6802292 0.090881721 0)
(1.2244893 0.30376465 -8.6211861e-21)
(0.10407943 -0.000954475 -2.4057488e-21)
(1.5846566 0.43451327 9.0507236e-21)
(1.5896577 0.44020104 0)
(0.43705034 -0.008379139 3.8762778e-20)
(0.8753579 -0.030715628 4.2664455e-20)
(1.2166767 0.1908062 9.6569445e-24)
(1.5133882 0.40717573 0)
(1.392538 0.32994631 -2.316419e-20)
(0.66365056 -0.020391645 -2.4419207e-24)
(1.5570637 0.41037244 -9.6733267e-21)
(1.2733694 0.32724104 3.1211757e-21)
(0.30084381 0.0053519082 -3.9279625e-25)
(0.7285582 0.13535003 8.5261102e-25)
(0.099424345 0.0034968539 1.3381451e-25)
(1.5744587 0.43710475 5.2600867e-21)
(1.1618069 0.25003097 -2.9241776e-20)
(0.89069814 -0.0050477433 -4.4753625e-20)
(0.44959674 -0.0013477324 -4.123881e-20)
(1.5959454 0.43264637 -8.8549816e-21)
(0.68020774 -0.0052650708 -2.5718025e-24)
(1.5369151 0.42755974 2.7928882e-21)
(1.3540651 0.3640171 1.606471e-20)
(1.551915 0.42462901 -1.8721794e-20)
(0.30278627 0.018737305 -3.6795815e-21)
(1.3299577 0.33227612 1.9191308e-20)
(0.78838495 0.1602767 6.2363963e-21)
(1.5587765 0.39305242 -1.1767912e-21)
(0.10433045 0.0075993914 -3.300211e-21)
(1.5126983 0.40574667 1.131411e-25)
(0.88308557 0.027204783 0)
(0.45367998 0.0061389271 4.1901118e-20)
(1.1062014 0.28432492 2.4526915e-20)
(0.68676568 0.010713385 -4.3172327e-20)
(1.5935169 0.36611582 1.0061857e-20)
(1.3168368 0.36141418 0)
(1.3960842 0.32816594 5.1409687e-20)
(0.85275616 0.16870816 -1.6848503e-20)
(0.31720125 0.029885031 6.7633402e-22)
(1.5381806 0.27849417 -9.0694103e-22)
(1.579796 0.40354484 -1.6141187e-20)
(0.11859561 0.010945607 -5.806637e-22)
(1.4906235 0.32437276 0)
(0.4485902 0.013487348 0)
(0.85005968 0.063244331 -3.8484996e-20)
(1.0530977 0.28894319 0)
(1.5748855 0.24063187 -1.3825008e-20)
(0.68070181 0.027658037 1.5374221e-21)
(1.2844582 0.32005458 -3.6060751e-21)
(0.9162971 0.16401254 0)
(1.4554524 0.30025241 0)
(1.5221985 0.1381291 -2.0430345e-23)
(0.34240965 0.037143629 7.2450653e-21)
(1.5802164 0.32216571 2.0872271e-20)
(1.4772501 0.19886348 1.9901737e-20)
(0.14040152 0.012914288 3.4915901e-25)
(1.0073479 0.26231675 0)
(1.3736666 0.19124504 -3.068293e-20)
(0.79540847 0.096141996 0)
(0.43416138 0.020347396 3.7166752e-20)
(0.65832178 0.045025765 -2.7472922e-21)
(1.5500683 0.085330097 1.1909784e-21)
(0.37522331 0.039911612 0)
(1.477675 0.21835928 0)
(0.97625698 0.14935279 0)
(1.5159194 -0.004465653 4.6882599e-21)
(0.16696177 0.013135688 -1.135874e-20)
(1.5628579 0.18719375 0)
(1.4737625 0.064475201 0)
(1.3760063 0.067007653 -1.7973202e-20)
(0.97097336 0.20699022 0)
(0.7276215 0.11782861 -2.3042011e-20)
(0.41037405 0.025920812 3.4745671e-20)
(1.5334792 -0.069095036 1.9031353e-20)
(0.61948956 0.060055333 -2.8402939e-20)
(1.4573345 0.088148731 -1.9756045e-23)
(1.0327084 0.12809428 -4.7269506e-20)
(0.41205464 0.038541332 2.7832716e-20)
(1.5165012 -0.14204827 0)
(1.5321668 0.026417638 2.7508524e-20)
(0.19505378 0.011858377 -1.9204254e-20)
(1.4754366 -0.072991216 1.0931733e-20)
(1.3813817 -0.067596532 -3.5648786e-20)
(0.3780454 0.029291804 0)
(0.94655621 0.12301521 9.7495767e-24)
(0.65688963 0.12382075 4.1511995e-24)
(0.56904328 0.068834948 -2.7596235e-24)
(1.5275189 -0.21216472 -1.9318249e-20)
(1.4113838 -0.06849387 4.7089056e-20)
(1.0858568 0.10264589 0)
(1.5244078 -0.26507506 -1.3566574e-21)
(0.44934039 0.033775372 0)
(1.4798403 -0.1993345 -1.4785518e-20)
(0.22162226 0.0095107793 0)
(1.5077724 -0.13261163 0)
(0.59305346 0.1113585 0)
(1.3857541 -0.19299081 -1.5116069e-20)
(0.93705796 0.014230532 0)
(0.34024371 0.029492776 0)
(1.5283288 -0.33610928 -3.706523e-20)
(0.51434347 0.068464018 1.7481889e-24)
(0.80332052 -0.92958731 0)
(1.5421232 -0.36798754 -2.2329196e-21)
(0.96537921 -1.0999427 3.6881582e-20)
(0.48381113 0.026545657 3.9263839e-20)
(1.1262304 0.065359201 2.7032581e-23)
(1.356289 -0.22067693 0)
(1.4930751 -0.27285316 -2.9036786e-20)
(1.4918676 -0.30316431 1.8603413e-21)
(0.24434318 0.0065333692 0)
(0.83447594 -1.0518756 4.6633893e-20)
(0.9480053 -0.099980276 0)
(0.30178436 0.025619307 -1.3173457e-20)
(1.394613 -0.28624296 0)
(0.54472331 0.081382732 5.7386921e-22)
(1.5317658 -0.42917632 0)
(0.4640406 0.057270661 -7.2245542e-21)
(1.3065568 -0.33737903 0)
(1.5653968 -0.4442988 0)
(1.1280159 0.0020990877 1.1363387e-19)
(0.51276159 0.017657857 4.7845924e-20)
(0.85941174 -0.9535235 -3.2145715e-20)
(1.4823154 -0.38441354 2.6670122e-20)
(1.5187208 -0.38512153 -2.3608545e-21)
(0.26162819 0.0032283032 -4.4487877e-20)
(1.4173572 -0.34872617 2.282383e-21)
(0.68517008 -0.81526878 0)
(0.26867535 0.017602464 -9.2262004e-21)
(0.97884013 -0.19134592 0)
(0.51670781 0.038982435 -1.2868162e-24)
(0.66919678 -0.77163732 -5.7794762e-21)
(0.63029255 -0.79823514 0)
(1.5307624 -0.47875291 1.263515e-20)
(0.4265869 0.0364301 -1.4129628e-25)
(0.5340717 0.0075776518 -4.9902574e-20)
(1.0808136 -0.082397698 0)
(1.2620395 -0.40971576 0)
(0.53072492 -0.65638772 6.7828972e-21)
(0.66821904 -0.90958521 -3.9141198e-21)
(1.5836179 -0.4810632 1.2221918e-20)
(0.52029838 -0.66769632 -7.8534493e-22)
(0.27244535 -0.00019304142 4.9042914e-20)
(1.4700281 -0.45461437 -2.1244958e-20)
(0.66974341 -0.89304656 2.8873703e-20)
(1.5575146 -0.44446347 -5.9329227e-21)
(0.51308649 -0.0085847372 -8.6993713e-21)
(0.30000735 -0.39231234 -4.43508e-21)
(1.0229422 -0.24300019 0)
(0.24663925 0.0063298199 1.3915054e-21)
(1.4597574 -0.39262983 -7.6306092e-21)
(0.40712864 0.0096155763 -3.5177262e-21)
(0.36602029 -0.4623391 2.532186e-20)
(0.52525369 -0.70539322 -1.4858186e-20)
(1.5250943 -0.48469533 0)
(1.592353 -0.47639775 0)
(0.59009261 -0.84351995 -7.3477128e-20)
(0.99601181 -0.16865048 0)
(1.221616 -0.43756734 -3.6637949e-20)
(0.31057901 -0.42883788 1.8358178e-20)
(0.15981237 -0.21795737 1.4118342e-21)
(0.54613976 -0.0035219004 -5.2579476e-20)
(1.5880072 -0.47146198 -6.8859795e-21)
(0.18857123 -0.25585222 0)
(0.27622742 -0.0033082134 -6.3365509e-24)
(1.4567056 -0.4788118 -6.9996876e-21)
(1.0750915 -0.25860748 0)
(1.5174244 -0.42413552 -1.2591256e-20)
(0.23922286 -0.0064687964 1.2021207e-21)
(0.5339388 -0.052837233 6.1248838e-21)
(1.5170552 -0.45021988 -7.3563203e-21)
(0.35944198 -0.44341593 -1.0601134e-20)
(0.20896465 -0.26813875 0)
(0.40805831 -0.018134993 3.5077681e-21)
(0.1580959 -0.24731891 -2.610684e-20)
(1.5929659 -0.4174263 2.5611876e-21)
(0.54776556 -0.015103717 -1.3115155e-23)
(0.8896466 -0.23514623 3.8535538e-23)
(1.1829321 -0.42386524 0)
(0.028807155 -0.046001288 -6.583684e-21)
(0.14352717 -0.22347339 0)
(0.13906917 -0.21671719 0)
(1.6038332 -0.4512458 8.1090912e-22)
(0.28662668 -0.43272686 2.6624819e-20)
(0.75528925 -1.0246657 -8.9285413e-20)
(0.27249725 -0.0062666373 0)
(1.4416474 -0.46542496 -4.8523685e-21)
(0.57478336 -0.084556684 4.767394e-21)
(0.2471524 -0.017996927 -3.6676164e-21)
(0.042396435 -0.066193814 6.2042625e-21)
(1.5692564 -0.42806269 -1.4614586e-20)
(1.1323631 -0.25671573 -2.1057236e-20)
(0.034250267 -0.055422734 0)
(0.4277311 -0.041573287 -3.2016365e-21)
(0.084440074 -0.10722837 -2.254829e-20)
(0.60243753 -0.87542787 1.1623962e-19)
(0.081217717 -0.097599465 0)
(1.5095389 -0.3520568 1.1248093e-20)
(1.3345933 0.95761073 0)
(1.145037 -0.36639634 -3.0844143e-23)
(0.78271872 -0.26243203 0)
(0.53797784 -0.02666847 0)
(1.5818227 -0.30776031 0)
(0.029297614 -0.043199257 0)
(0.027568456 -0.045824655 -1.4912954e-20)
(0.25652408 -0.40249464 0)
(0.12810663 -0.20721604 0)
(0.26097672 -0.0094451949 -5.1901791e-20)
(0.21370857 -0.27169449 1.7663606e-21)
(1.6060547 -0.37549265 2.044653e-20)
(1.4288262 -0.39988611 -1.0728562e-20)
(1.4736023 1.0517189 -6.2953812e-21)
(0.6262222 -0.10130202 9.2242739e-21)
(0.44870101 -0.68918983 0)
(1.5934468 -0.37319852 0)
(0.71671639 -1.0218087 3.4748029e-20)
(1.5713542 1.0337205 1.963466e-20)
(1.1967637 -0.25074799 0)
(1.3904457 0.87564933 1.3565781e-20)
(0.26840366 -0.026258919 5.5140942e-21)
(0.46085421 -0.056954189 -7.0796362e-21)
(1.4998732 -0.21516783 1.7635139e-20)
(0.66500067 -0.96636175 3.8095376e-20)
(1.1741321 0.89819075 -6.7057041e-21)
(1.1141342 -0.25742154 -5.8278306e-20)
(0.38444351 -0.60960891 -5.6911552e-20)
(0.69046005 -0.2447508 -1.9201832e-23)
(1.5622609 -0.1636253 -1.0486234e-21)
(0.23527211 -0.38975247 0)
(0.5156947 -0.037276183 0)
(0.052604818 0.0088289979 -6.7594652e-20)
(1.421136 -0.27990027 0)
(1.1683332 0.81876606 -2.5001979e-20)
(1.5936566 -0.25635271 1.1430994e-20)
(0.2416591 -0.01240092 9.5514994e-20)
(0.08163534 0.013349038 -1.5367103e-20)
(0.29896116 -0.030218443 -1.2416661e-20)
(1.270929 -0.24681399 0)
(1.1591082 0.7265876 1.1798552e-20)
(0.67959058 -0.10602922 -1.8655191e-20)
(1.5921285 -0.26954147 2.1761376e-20)
(1.4857822 -0.051238421 -2.6679592e-22)
(0.16304902 -0.20675804 -1.2567991e-21)
(0.50088222 -0.063880581 1.9828854e-20)
(0.91791533 0.62710697 0)
(0.034263026 -0.043088324 -5.2037973e-21)
(0.086818821 -0.10587644 0)
(0.44159785 -0.51536577 -1.1141971e-21)
(0.33130393 -0.38671989 -5.5787171e-21)
(0.61870994 -0.1899317 0)
(0.35119383 -0.58096786 -3.2627514e-20)
(0.49005178 -0.78412993 -9.0981328e-21)
(1.015847 0.63607793 0)
(1.5395315 0.0036474411 1.662419e-21)
(0.48023369 -0.045126085 -3.6090096e-20)
(0.63603928 0.41359719 2.7119013e-20)
(1.0913734 -0.10158964 -7.5017896e-20)
(0.57626038 -0.89567445 0)
(1.4114675 -0.12434222 -4.9488426e-23)
(0.083138697 -0.10423827 0)
(1.5703525 -0.10297302 -1.2005139e-20)
(0.21484245 -0.014324324 2.0666188e-23)
(0.73608348 0.50447715 -1.9566328e-20)
(1.3500713 -0.23840933 0)
(0.33418805 -0.030330097 2.4614864e-20)
(0.73144365 -0.10228326 0)
(1.5743514 -0.12897111 -1.0558648e-21)
(-0.0007494134 0.0080217207 1.5607185e-20)
(0.9187655 0.6650676 0)
(0.9228087 -1.1225033 -1.010738e-19)
(0.54341653 -0.063993666 -2.8530021e-20)
(1.1715178 0.69595478 0)
(1.4664745 0.12231054 5.5389725e-20)
(0.43460752 -0.047879113 0)
(0.64461973 0.35229891 8.7104625e-21)
(0.0083228787 0.0107197 0)
(1.0801485 0.074042091 0)
(0.57154512 -0.10768748 -1.1298701e-20)
(0.025238139 -0.043351818 8.1162305e-21)
(0.80089991 -0.87720186 -8.2209003e-21)
(1.5185718 0.17619359 0)
(0.05347368 -0.095958444 3.152552e-22)
(0.18298177 -0.014768883 3.644801e-20)
(0.11753766 -0.19999432 1.0207184e-20)
(0.82943037 -1.0880661 -1.0185876e-19)
(0.022778729 0.01759449 3.8942385e-20)
(-0.0010432458 0.014311462 0)
(1.3955048 0.053399198 3.0299523e-20)
(0.032535641 -0.055574608 -2.3384497e-20)
(1.5430611 0.071261446 -1.0852259e-21)
(0.11071434 -0.19906763 -1.1770227e-20)
(1.5436751 0.040940291 -6.2220061e-23)
(0.44967524 0.30051309 1.3348605e-20)
(0.11094211 -0.2091491 2.4708901e-20)
(0.78078447 -0.093744984 0)
(0.37030598 -0.027678177 -2.8691675e-20)
(1.4083322 -0.20147825 4.9506934e-20)
(0.86132022 0.46571242 -1.5764847e-20)
(0.91265617 0.52267318 1.4388228e-20)
(0.74356831 -1.0436857 -8.4058815e-20)
(0.3784357 0.24515469 6.4556336e-21)
(0.58565854 -0.059377701 -3.6704902e-20)
(1.4493255 0.26910221 -2.759863e-20)
(0.73185197 0.52788823 0)
(0.55828229 -0.011682645 -3.7325886e-23)
(1.085961 0.21959202 -2.4126092e-20)
(0.21564454 -0.3755216 -3.3577043e-20)
(0.0308244 0.0075793347 0)
(-0.023070811 -0.019997328 8.4831333e-21)
(0.2859921 0.16937184 0)
(0.38552411 -0.043436747 -1.7633384e-20)
(0.49242723 -0.84816304 7.2114213e-20)
(0.90468005 -1.0838535 -1.2037604e-19)
(0.48533854 0.28585097 -3.4259512e-20)
(0.095398085 0.0065927227 -3.9188736e-20)
(1.5454775 0.843442 4.9137774e-20)
(1.5112541 0.33209806 -1.4378174e-20)
(0.5533296 -0.90171943 0)
(0.33538769 -0.58642761 -3.8409024e-20)
(-0.0319938 -0.043122683 -4.9915836e-20)
(0.66227793 0.38953738 3.1996261e-20)
(0.32577487 -0.59760796 8.9375324e-22)
(0.79585221 -1.0462517 -5.0529641e-20)
(-0.026820825 -0.024658528 0)
(-0.015729374 -0.037364185 4.1824503e-20)
(0.19877297 0.12091212 1.0956268e-20)
(1.3777662 0.21598815 2.5094762e-20)
(0.14999376 -0.013124797 -2.7912715e-20)
(0.42157995 -0.74689994 6.9571476e-20)
(-0.016109067 -0.050817222 -4.249142e-20)
(0.4093896 0.22915709 0)
(1.4078083 0.78164435 -6.7889428e-20)
(1.5227648 0.24924814 1.696613e-20)
(0.50543348 -0.83771007 -2.1065273e-21)
(0.40441823 -0.023333806 3.6623953e-20)
(1.4229591 -0.11363316 0)
(-0.02689941 -0.049205366 -2.5126335e-20)
(0.2295806 -0.41675074 -5.2365003e-20)
(0.51491657 0.31704264 0)
(0.046587831 0.0064553553 -5.4409189e-20)
(1.5103054 0.22624451 -1.3215125e-22)
(-0.0042739508 0.0060245289 0)
(0.10193605 -0.19774887 -3.1361974e-20)
(0.2588786 0.17738388 6.3934463e-21)
(0.051024942 0.027470076 -9.9767863e-21)
(0.66230509 -0.99470716 9.7830319e-20)
(0.089139545 -0.18086398 1.6333901e-20)
(0.67221094 -0.98951561 6.7852436e-20)
(0.82750105 -0.082499523 -9.1674104e-20)
(0.042879402 -0.089767091 0)
(0.025482285 -0.049113651 0)
(0.46419199 0.34163676 7.8925793e-21)
(-0.0093633703 0.0056811205 1.0899403e-20)
(0.1979322 0.10649893 -2.6855241e-20)
(0.19655346 0.12877301 -9.5760486e-21)
(1.4487614 0.37542374 -2.1756236e-21)
(0.082162078 0.0564113 0)
(0.63892001 -0.97608178 2.4715067e-20)
(0.62582655 -0.051884486 4.0503655e-20)
(-0.028292387 -0.02570288 0)
(1.1092875 0.308903 -9.4433905e-21)
(0.059349239 0.033458836 0)
(0.34208835 -0.030884244 -3.4371786e-21)
(1.5273374 0.46534876 1.7800368e-20)
(0.95925475 -1.076583 8.7882305e-20)
(1.1248048 0.57951466 8.8294487e-20)
(-0.012665364 0.0097377131 1.6039163e-20)
(0.58179209 0.075804343 -2.9824205e-23)
(0.055204412 0.031862015 2.0678504e-21)