/*--------------------------------*- C++ -*----------------------------------*\
  =========                 |
  \\      /  F ield         | OpenFOAM: The Open Source CFD Toolbox
   \\    /   O peration     | Website:  https://openfoam.org
    \\  /    A nd           | Version:  8
     \\/     M anipulation  |
\*---------------------------------------------------------------------------*/
FoamFile
{
    version     2.0;
    format      ascii;
    class       volVectorField;
    location    "30";
    object      U;
}
// * * * * * * * * * * * * * * * * * * * * * * * * * * * * * * * * * * * * * //

dimensions      [0 1 -1 0 0 0 0];

internalField   nonuniform List<vector> 
23125
(
(2.0002393 -0.0003133001 0)
(2.0002307 -0.00089459437 0)
(2.0002135 -0.0013818672 0)
(2.0001871 -0.0017705065 0)
(2.0001517 -0.0020601368 0)
(2.0001088 -0.0022553144 0)
(2.0000606 -0.0023654059 0)
(2.0000039 -0.0024022298 0)
(1.9999614 -0.0023809833 0)
(1.9999122 -0.0023167138 0)
(1.9998686 -0.0022223122 0)
(1.9998303 -0.0021093497 0)
(1.999798 -0.0019870554 0)
(1.9997715 -0.0018623539 0)
(1.9997505 -0.0017400516 0)
(1.9997344 -0.001623213 0)
(1.9997223 -0.001513592 0)
(1.9997135 -0.0014120486 0)
(1.999707 -0.0013188993 0)
(1.9997022 -0.0012341679 0)
(1.9996985 -0.0011577337 0)
(1.9996956 -0.0010893906 0)
(1.9996932 -0.0010288518 0)
(1.9996911 -0.00097575345 0)
(1.9996892 -0.00092973389 0)
(2.0012118 -0.00091839952 0)
(2.0011686 -0.002625497 0)
(2.0010818 -0.0040646393 0)
(2.0009478 -0.0052232779 0)
(2.0007681 -0.0060986159 0)
(2.00055 -0.0067008822 0)
(2.000305 -0.0070540624 0)
(2.000046 -0.0071926734 0)
(1.9997864 -0.0071554276 0)
(1.9995405 -0.0069831632 0)
(1.9993119 -0.006715326 0)
(1.9991068 -0.0063843548 0)
(1.9989278 -0.0060174421 0)
(1.9987747 -0.0056360516 0)
(1.9986457 -0.0052563786 0)
(1.9985384 -0.004890234 0)
(1.9984498 -0.0045458405 0)
(1.9983767 -0.0042284903 0)
(1.9983166 -0.0039410826 0)
(1.9982669 -0.0036845949 0)
(1.9982258 -0.0034585364 0)
(1.9981915 -0.0032613929 0)
(1.9981629 -0.0030910356 0)
(1.998139 -0.0029450214 0)
(1.9981191 -0.0028207221 0)
(2.0031765 -0.0015078133 0)
(2.0030772 -0.0043253177 0)
(2.0028704 -0.0067373378 0)
(2.0025439 -0.0087273515 0)
(2.0020973 -0.010284344 0)
(2.0015458 -0.011413508 0)
(2.0009168 -0.012140624 0)
(2.0002477 -0.012511628 0)
(1.9995586 -0.012581896 0)
(1.9988986 -0.012412937 0)
(1.998276 -0.012067734 0)
(1.9977069 -0.011601486 0)
(1.9971989 -0.011061895 0)
(1.9967535 -0.010487409 0)
(1.9963685 -0.0099072481 0)
(1.9960392 -0.0093424085 0)
(1.9957599 -0.0088069318 0)
(1.9955246 -0.0083093484 0)
(1.9953273 -0.0078540938 0)
(1.9951624 -0.0074427499 0)
(1.9950249 -0.0070750258 0)
(1.9949105 -0.006749455 0)
(1.9948155 -0.0064638437 0)
(1.9947367 -0.006215558 0)
(1.9946717 -0.0060017893 0)
(2.0058658 -0.0020825346 0)
(2.0057184 -0.0059999738 0)
(2.0053957 -0.00941599 0)
(2.0048644 -0.01231503 0)
(2.0041122 -0.014672488 0)
(2.0031566 -0.01647738 0)
(2.0020416 -0.017743397 0)
(2.0008287 -0.018511087 0)
(1.9995684 -0.018844043 0)
(1.99833 -0.018817173 0)
(1.9971503 -0.018509667 0)
(1.9960592 -0.017998902 0)
(1.9950755 -0.017352963 0)
(1.9942058 -0.016628607 0)
(1.9934487 -0.015870598 0)
(1.9927977 -0.015112619 0)
(1.9922434 -0.014378808 0)
(1.9917747 -0.013685557 0)
(1.9913805 -0.013043213 0)
(1.9910503 -0.012457506 0)
(1.9907745 -0.011930721 0)
(1.9905446 -0.011462629 0)
(1.9903535 -0.011051232 0)
(1.990195 -0.010693348 0)
(1.9900639 -0.010385093 0)
(2.0090021 -0.0026231575 0)
(2.0088389 -0.0075901637 0)
(2.0084497 -0.012003149 0)
(2.0077659 -0.015853019 0)
(2.0067471 -0.019100221 0)
(2.0054016 -0.021709128 0)
(2.0037823 -0.023668782 0)
(2.0019716 -0.024998997 0)
(2.0000579 -0.025755873 0)
(1.9981309 -0.026016863 0)
(1.9962664 -0.025870668 0)
(1.9945174 -0.025412787 0)
(1.9929198 -0.024731967 0)
(1.9914907 -0.023906214 0)
(1.9902332 -0.023000389 0)
(1.9891413 -0.022065751 0)
(1.9882027 -0.021140854 0)
(1.9874025 -0.020253191 0)
(1.9867243 -0.019421097 0)
(1.9861525 -0.018655646 0)
(1.9856721 -0.017962389 0)
(1.98527 -0.017342845 0)
(1.9849345 -0.016795716 0)
(1.9846555 -0.016317806 0)
(1.9844244 -0.015904732 0)
(2.0123793 -0.0031072621 0)
(2.0122428 -0.0090273197 0)
(2.0118585 -0.014381092 0)
(2.0111087 -0.019172392 0)
(2.0099096 -0.023350966 0)
(2.0082459 -0.026853619 0)
(2.0061658 -0.029634946 0)
(2.0037645 -0.031682309 0)
(2.0011626 -0.033026797 0)
(1.9984786 -0.033734599 0)
(1.9958278 -0.033895333 0)
(1.9932974 -0.033615002 0)
(1.9909487 -0.033000598 0)
(1.9888175 -0.032151656 0)
(1.9869187 -0.031155219 0)
(1.9852516 -0.030082941 0)
(1.983805 -0.028990808 0)
(1.9825615 -0.027920361 0)
(1.9815004 -0.026900715 0)
(1.9806004 -0.025950869 0)
(1.9798408 -0.02508193 0)
(1.9792024 -0.02429908 0)
(1.9786679 -0.023603195 0)
(1.9782223 -0.022992117 0)
(1.9778522 -0.022461671 0)
(2.0158417 -0.0035198316 0)
(2.0157743 -0.010265517 0)
(2.01547 -0.016466164 0)
(2.0147522 -0.022146087 0)
(2.0134831 -0.027252621 0)
(2.0116092 -0.031697896 0)
(2.0091583 -0.035398315 0)
(2.0062258 -0.038300037 0)
(2.0029527 -0.040395084 0)
(1.9994891 -0.041723 0)
(1.9959892 -0.042361228 0)
(1.9925819 -0.042415077 0)
(1.9893631 -0.042002454 0)
(1.9863974 -0.041240915 0)
(1.98372 -0.040239201 0)
(1.9813425 -0.039091126 0)
(1.9792594 -0.037873292 0)
(1.9774539 -0.036645104 0)
(1.9759023 -0.035450326 0)
(1.9745783 -0.034319374 0)
(1.9734551 -0.033271819 0)
(1.9725069 -0.032318774 0)
(1.9717101 -0.031464988 0)
(1.9710436 -0.030710566 0)
(1.9704886 -0.030052392 0)
(2.0192616 -0.0038562851 0)
(2.0193001 -0.011287624 0)
(2.0191444 -0.018220291 0)
(2.0185553 -0.024706765 0)
(2.0173351 -0.030701878 0)
(2.0153807 -0.036100239 0)
(2.0126847 -0.040782766 0)
(2.0093277 -0.044650681 0)
(2.0054563 -0.047648067 0)
(2.001246 -0.049773551 0)
(1.996887 -0.051076915 0)
(1.9925521 -0.051648883 0)
(1.9883792 -0.051606809 0)
(1.9844705 -0.051079197 0)
(1.9808909 -0.050193166 0)
(1.9776726 -0.049064611 0)
(1.9748225 -0.047792841 0)
(1.9723291 -0.046458401 0)
(1.9701694 -0.045123373 0)
(1.9683139 -0.043833159 0)
(1.9667305 -0.042618988 0)
(1.9653873 -0.041500614 0)
(1.9642539 -0.04048887 0)
(1.9633023 -0.039587863 0)
(1.9625077 -0.038796851 0)
(2.0225387 -0.0041198731 0)
(2.0227115 -0.012099311 0)
(2.0227612 -0.019642723 0)
(2.0223871 -0.026837316 0)
(2.0213304 -0.033654837 0)
(2.019432 -0.039981928 0)
(2.0166382 -0.045671859 0)
(2.0129995 -0.050583229 0)
(2.008653 -0.054609254 0)
(2.0037858 -0.057697822 0)
(1.9986166 -0.059856744 0)
(1.9933581 -0.061147256 0)
(1.9881936 -0.061672152 0)
(1.9832695 -0.061560126 0)
(1.9786891 -0.060949585 0)
(1.9745144 -0.059975168 0)
(1.9707731 -0.05875851 0)
(1.9674663 -0.057402993 0)
(1.9645765 -0.05599193 0)
(1.9620749 -0.054589141 0)
(1.9599264 -0.053240974 0)
(1.9580936 -0.051979017 0)
(1.9565398 -0.050822936 0)
(1.9552301 -0.049783109 0)
(1.9541328 -0.048862969 0)
(2.0256043 -0.004318489 0)
(2.0259308 -0.012720472 0)
(2.0262277 -0.020757267 0)
(2.0261377 -0.028555327 0)
(2.0253445 -0.036110825 0)
(2.0236313 -0.043312635 0)
(2.0208911 -0.049997195 0)
(2.017133 -0.05598812 0)
(2.0124692 -0.061130663 0)
(2.0070829 -0.065318498 0)
(2.0012083 -0.068507508 0)
(1.9950887 -0.070715896 0)
(1.9889506 -0.072017288 0)
(1.9829873 -0.072527015 0)
(1.9773468 -0.072384039 0)
(1.9721297 -0.071734683 0)
(1.9673933 -0.070719395 0)
(1.9631597 -0.069463801 0)
(1.9594238 -0.06807391 0)
(1.9561625 -0.066634641 0)
(1.9533413 -0.065210685 0)
(1.9509201 -0.06384873 0)
(1.9488566 -0.062580308 0)
(1.9471098 -0.061424704 0)
(1.9456409 -0.060391739 0)
(2.0284196 -0.0044620772 0)
(2.0289102 -0.013177916 0)
(2.0294805 -0.021601074 0)
(2.0297238 -0.029899292 0)
(2.0292722 -0.038098167 0)
(2.0278543 -0.046098114 0)
(2.0253079 -0.053730303 0)
(2.0215937 -0.060794281 0)
(2.0167867 -0.067095061 0)
(2.0110513 -0.072474876 0)
(2.0046211 -0.076833744 0)
(1.9977577 -0.080137385 0)
(1.9907224 -0.082417398 0)
(1.9837529 -0.083761451 0)
(1.9770445 -0.084296034 0)
(1.9707422 -0.084168852 0)
(1.9649413 -0.083532313 0)
(1.9596931 -0.08253077 0)
(1.9550128 -0.081292123 0)
(1.9508898 -0.079923515 0)
(1.947295 -0.078510253 0)
(1.9441891 -0.077116955 0)
(1.9415271 -0.075789945 0)
(1.9392628 -0.074560191 0)
(1.9373508 -0.073446374 0)
(2.0309688 -0.0045608895 0)
(2.031626 -0.013500258 0)
(2.0324818 -0.022216462 0)
(2.0330875 -0.030918209 0)
(2.0330314 -0.039663038 0)
(2.0319934 -0.04837026 0)
(2.0297586 -0.056876285 0)
(2.0262369 -0.064968402 0)
(2.0214586 -0.072422102 0)
(2.0155569 -0.079035783 0)
(2.0087499 -0.084655734 0)
(2.0013028 -0.089191464 0)
(1.9934995 -0.092623714 0)
(1.9856142 -0.094999977 0)
(1.9778869 -0.096420904 0)
(1.9705094 -0.097023322 0)
(1.9636204 -0.096961886 0)
(1.9573077 -0.096393095 0)
(1.951615 -0.095463182 0)
(1.9465509 -0.094300433 0)
(1.9420985 -0.09301148 0)
(1.9382236 -0.091680682 0)
(1.9348821 -0.090371535 0)
(1.9320247 -0.089129239 0)
(1.9296014 -0.087983828 0)
(2.0332517 -0.0046244733 0)
(2.034072 -0.013714805 0)
(2.0352135 -0.022645585 0)
(2.0361928 -0.031664318 0)
(2.0365626 -0.040860893 0)
(2.0359618 -0.050178478 0)
(2.0341281 -0.059467047 0)
(2.0309223 -0.068512422 0)
(2.0263271 -0.077072193 0)
(2.0204367 -0.084911304 0)
(2.0134414 -0.091829281 0)
(2.0055959 -0.097681444 0)
(1.9971927 -0.10239409 0)
(1.9885311 -0.10596598 0)
(1.9798883 -0.10846038 0)
(1.9715006 -0.10999084 0)
(1.963552 -0.11070295 0)
(1.956172 -0.1107563 0)
(1.9494389 -0.11030924 0)
(1.943388 -0.10950766 0)
(1.9380206 -0.10847821 0)
(1.9333136 -0.1073253 0)
(1.9292277 -0.10613095 0)
(1.9257143 -0.10495652 0)
(1.9227206 -0.10384557 0)
(2.035278 -0.0046611766 0)
(2.0362536 -0.013845911 0)
(2.0376719 -0.022927332 0)
(2.0390216 -0.032188345 0)
(2.0398277 -0.041750029 0)
(2.0396957 -0.051582026 0)
(2.0383231 -0.061553611 0)
(2.0355259 -0.071457802 0)
(2.0312406 -0.081045016 0)
(2.0255186 -0.090057846 0)
(2.0185147 -0.098258881 0)
(2.0104618 -0.10545576 0)
(2.0016476 -0.11152193 0)
(1.9923829 -0.11640378 0)
(1.9829719 -0.12011932 0)
(1.9736888 -0.12274824 0)
(1.9647606 -0.12441576 0)
(1.9563602 -0.12527437 0)
(1.9486048 -0.12548627 0)
(1.9415618 -0.12520922 0)
(1.9352569 -0.12458645 0)
(1.9296835 -0.12374096 0)
(1.9248124 -0.12277325 0)
(1.9205993 -0.12176177 0)
(1.9169915 -0.12076515 0)
(2.0370637 -0.0046779954 0)
(2.038184 -0.013914331 0)
(2.0398638 -0.023095782 0)
(2.04157 -0.032536641 0)
(2.0428065 -0.042386971 0)
(2.0431529 -0.052643551 0)
(2.042274 -0.063198245 0)
(2.039947 -0.073857388 0)
(2.0360657 -0.084372982 0)
(2.0306395 -0.094475483 0)
(2.023784 -0.1039012 0)
(2.0157028 -0.11241918 0)
(2.0066674 -0.11985565 0)
(1.9969881 -0.12610583 0)
(1.986984 -0.13113899 0)
(1.9769576 -0.13499362 0)
(1.9671735 -0.13776516 0)
(1.9578455 -0.13958892 0)
(1.9491311 -0.14062194 0)
(1.9411334 -0.14102651 0)
(1.933907 -0.14095726 0)
(1.9274671 -0.14055257 0)
(1.9217989 -0.13992985 0)
(1.9168668 -0.13918436 0)
(1.9126217 -0.13839041 0)
(2.0386283 -0.0046805881 0)
(2.039881 -0.013937129 0)
(2.0418031 -0.023179666 0)
(2.0438444 -0.032749697 0)
(2.0454934 -0.042823477 0)
(2.0463106 -0.05342414 0)
(2.0459346 -0.064467395 0)
(2.0441107 -0.07577664 0)
(2.0406951 -0.087111821 0)
(2.0356585 -0.098199636 0)
(2.0290769 -0.10876001 0)
(2.0211214 -0.11853325 0)
(2.0120396 -0.12730638 0)
(2.0021309 -0.13492831 0)
(1.9917182 -0.14132029 0)
(1.9811216 -0.14647629 0)
(1.970635 -0.15045534 0)
(1.9605081 -0.15336728 0)
(1.9509368 -0.15535528 0)
(1.9420608 -0.15657834 0)
(1.9339663 -0.15719618 0)
(1.926694 -0.15735797 0)
(1.9202478 -0.15719512 0)
(1.9146045 -0.15681816 0)
(1.909722 -0.15631668 0)
(2.0399918 -0.004673425 0)
(2.0413645 -0.013927963 0)
(2.0435075 -0.023202474 0)
(2.045858 -0.032861646 0)
(2.0478936 -0.043104885 0)
(2.0491613 -0.053979961 0)
(2.0492793 -0.065426189 0)
(2.0479671 -0.077285787 0)
(2.0450498 -0.089330733 0)
(2.0404632 -0.10129017 0)
(2.0342471 -0.11287586 0)
(2.0265388 -0.12380856 0)
(2.0175586 -0.13384486 0)
(2.0075876 -0.14279442 0)
(1.9969432 -0.15053443 0)
(1.9859531 -0.15701465 0)
(1.974931 -0.16225449 0)
(1.9641557 -0.16633251 0)
(1.9538571 -0.16937086 0)
(1.9442096 -0.17151792 0)
(1.9353318 -0.17293192 0)
(1.927292 -0.17376748 0)
(1.9201157 -0.1741661 0)
(1.9137951 -0.174251 0)
(1.9082983 -0.17412566 0)
(2.0411766 -0.0046598936 0)
(2.0426552 -0.013897446 0)
(2.044997 -0.0231829 0)
(2.0476285 -0.032900404 0)
(2.0500201 -0.043269518 0)
(2.051709 -0.05436039 0)
(2.0522987 -0.066134709 0)
(2.0514884 -0.078453809 0)
(2.0490774 -0.091103873 0)
(2.044972 -0.10382064 0)
(2.0391797 -0.11631391 0)
(2.0318061 -0.1282926 0)
(2.0230428 -0.13949116 0)
(2.0131488 -0.14968784 0)
(2.0024291 -0.15872166 0)
(1.9912107 -0.16650126 0)
(1.9798183 -0.1730064 0)
(1.9685519 -0.17828134 0)
(1.9576693 -0.18242224 0)
(1.9473761 -0.18556084 0)
(1.937822 -0.18784784 0)
(1.9291029 -0.18943796 0)
(1.9212674 -0.19047837 0)
(1.9143256 -0.19110173 0)
(1.9082579 -0.19142325 0)
(2.0421992 -0.0046426646 0)
(2.0437735 -0.013853713 0)
(2.0462921 -0.023135459 0)
(2.0491758 -0.03288821 0)
(2.0518901 -0.043348797 0)
(2.0539661 -0.054607286 0)
(2.0549963 -0.066645917 0)
(2.0546643 -0.079344437 0)
(2.0527487 -0.09250397 0)
(2.0491317 -0.10586927 0)
(2.0437926 -0.11915249 0)
(2.0368088 -0.1320566 0)
(2.0283441 -0.14430108 0)
(2.0186341 -0.15564018 0)
(2.0079674 -0.16588146 0)
(1.9966639 -0.17489727 0)
(1.9850518 -0.18262996 0)
(1.9734448 -0.18908921 0)
(1.9621222 -0.19434245 0)
(1.951316 -0.19850062 0)
(1.9412035 -0.20170197 0)
(1.9319073 -0.2040965 0)
(1.9234991 -0.20583276 0)
(1.9160079 -0.2070493 0)
(1.9094281 -0.20787046 0)
(2.0430824 -0.0046235655 0)
(2.0447382 -0.013802824 0)
(2.047413 -0.023071175 0)
(2.0505206 -0.032842354 0)
(2.0535239 -0.043367825 0)
(2.0559502 -0.054755091 0)
(2.0573843 -0.067004846 0)
(2.057498 -0.080013937 0)
(2.0560535 -0.093598176 0)
(2.0529133 -0.10751245 0)
(2.0480335 -0.1214739 0)
(2.0414665 -0.13518386 0)
(2.0333512 -0.14835244 0)
(2.0239001 -0.16071639 0)
(2.0133834 -0.1720583 0)
(2.0021101 -0.18221979 0)
(1.9904063 -0.19110966 0)
(1.9785927 -0.19870455 0)
(1.9669639 -0.20504265 0)
(1.9557728 -0.21021179 0)
(1.9452207 -0.21433434 0)
(1.935454 -0.21755169 0)
(1.9265669 -0.22000999 0)
(1.9186069 -0.22185028 0)
(1.9115831 -0.22320328 0)
(2.0438379 -0.0046040745 0)
(2.0455672 -0.013749176 0)
(2.0483786 -0.02299822 0)
(2.0516832 -0.032775968 0)
(2.0549426 -0.043346177 0)
(2.0576819 -0.054831423 0)
(2.0594807 -0.067248685 0)
(2.060002 -0.080510275 0)
(2.0589953 -0.094445815 0)
(2.0563072 -0.10882051 0)
(2.0518747 -0.12335795 0)
(2.0457293 -0.13776061 0)
(2.0379879 -0.15173342 0)
(2.0288415 -0.16500092 0)
(2.0185417 -0.1773265 0)
(2.0073847 -0.1885266 0)
(1.9956904 -0.19848097 0)
(1.9837817 -0.20713613 0)
(1.9719628 -0.21450213 0)
(1.9605025 -0.220643 0)
(1.9496216 -0.22566335 0)
(1.9394876 -0.2296932 0)
(1.9302146 -0.23287333 0)
(1.9218682 -0.23534434 0)
(1.9144718 -0.23724066 0)
(2.0444871 -0.0045849179 0)
(2.0462767 -0.013695832 0)
(2.0492066 -0.022922482 0)
(2.0526831 -0.032698782 0)
(2.0561672 -0.04329877 0)
(2.0591832 -0.054857923 0)
(2.0613071 -0.06740739 0)
(2.0621952 -0.0808732 0)
(2.0615876 -0.09509756 0)
(2.0593182 -0.10985558 0)
(2.0553084 -0.12487785 0)
(2.0495726 -0.13986968 0)
(2.0422086 -0.15453376 0)
(2.0333882 -0.16858646 0)
(2.0233458 -0.18177682 0)
(2.0123635 -0.19390111 0)
(2.0007532 -0.20481464 0)
(1.9888361 -0.21443741 0)
(1.9769219 -0.22275347 0)
(1.9652905 -0.22980377 0)
(1.9541781 -0.23567448 0)
(1.9437699 -0.24048272 0)
(1.9341978 -0.24436182 0)
(1.9255433 -0.24744956 0)
(1.9178438 -0.24988185 0)
(2.0450343 -0.0045672174 0)
(2.0468813 -0.013644888 0)
(2.0499134 -0.022848061 0)
(2.0535386 -0.032617811 0)
(2.0572182 -0.043236708 0)
(2.0604761 -0.054851179 0)
(2.0628863 -0.067504575 0)
(2.0641004 -0.081134896 0)
(2.0638507 -0.095595556 0)
(2.0619614 -0.11067082 0)
(2.0583416 -0.1260982 0)
(2.0529914 -0.14158677 0)
(2.0459926 -0.15683888 0)
(2.0375006 -0.17156573 0)
(2.0277338 -0.18550582 0)
(2.0169608 -0.19843961 0)
(2.0054844 -0.21020225 0)
(1.9936218 -0.220691 0)
(1.9816848 -0.22986667 0)
(1.9699608 -0.2377487 0)
(1.9586977 -0.24440522 0)
(1.9480951 -0.24993988 0)
(1.9382997 -0.25447732 0)
(1.9294076 -0.2581509 0)
(1.9214688 -0.26109617 0)
(2.0455021 -0.0045517122 0)
(2.0473939 -0.013597703 0)
(2.0505136 -0.022777701 0)
(2.0542665 -0.032537945 0)
(2.0581146 -0.043168042 0)
(2.0615822 -0.054823636 0)
(2.0642418 -0.067558485 0)
(2.0657417 -0.081320906 0)
(2.0658085 -0.095974115 0)
(2.0642586 -0.11131058 0)
(2.0609913 -0.12707436 0)
(2.0559951 -0.14297858 0)
(2.0493387 -0.15872644 0)
(2.0411634 -0.17402609 0)
(2.0316734 -0.18860843 0)
(2.0211252 -0.20224167 0)
(2.0098117 -0.21474464 0)
(1.9980453 -0.22599541 0)
(1.9861374 -0.23593456 0)
(1.9743801 -0.24456215 0)
(1.9630299 -0.25192935 0)
(1.9522976 -0.25812657 0)
(1.9423427 -0.26326928 0)
(1.9332735 -0.26748542 0)
(1.9251509 -0.27090886 0)
(2.0459003 -0.0045379613 0)
(2.0478261 -0.013554909 0)
(2.0510202 -0.022713114 0)
(2.054882 -0.032462453 0)
(2.0588741 -0.043098439 0)
(2.0625216 -0.054784421 0)
(2.0653964 -0.067582957 0)
(2.067144 -0.08145116 0)
(2.0674868 -0.096260686 0)
(2.0662352 -0.1118112 0)
(2.0632807 -0.12785271 0)
(2.0586025 -0.14410234 0)
(2.0522586 -0.16026481 0)
(2.0443782 -0.17604662 0)
(2.0351538 -0.19117328 0)
(2.0248304 -0.20540362 0)
(2.0136921 -0.21854336 0)
(2.0020454 -0.23045468 0)
(1.9902003 -0.24106088 0)
(1.9784512 -0.25034495 0)
(1.9670609 -0.25834272 0)
(1.9562489 -0.26513205 0)
(1.9461849 -0.27081935 0)
(1.9369877 -0.27552675 0)
(1.9287276 -0.27938563 0)
(1.9996874 -0.00088700117 0)
(1.9996854 -0.00084387864 0)
(1.9996834 -0.00080041253 0)
(1.9996813 -0.00075658809 0)
(1.9996792 -0.00071239864 0)
(1.999677 -0.00066784575 0)
(1.9996747 -0.00062293269 0)
(1.9996724 -0.00057766255 0)
(1.9996701 -0.00053203834 0)
(1.9996676 -0.00048606316 0)
(1.9996652 -0.00043974015 0)
(1.9996626 -0.00039307263 0)
(1.99966 -0.00034606421 0)
(1.9996574 -0.00029871652 0)
(1.9996546 -0.00025102021 0)
(1.9996516 -0.00020296015 0)
(1.9996484 -0.00015463202 0)
(1.9996448 -0.00010644377 0)
(1.9996407 -5.8008497e-05 0)
(1.9996375 -7.2967063e-06 0)
(1.9996368 4.2840492e-05 0)
(1.9996372 9.1741738e-05 0)
(1.9996369 0.00014049181 0)
(1.9996368 0.00019113489 0)
(1.9996388 0.00024325109 0)
(1.998101 -0.0027061092 0)
(1.9980832 -0.0025902805 0)
(1.9980656 -0.0024731647 0)
(1.9980482 -0.0023548018 0)
(1.998031 -0.0022352386 0)
(1.998014 -0.0021145135 0)
(1.9979974 -0.0019926624 0)
(1.997981 -0.0018697221 0)
(1.9979649 -0.00174573 0)
(1.997949 -0.0016207248 0)
(1.9979335 -0.0014947455 0)
(1.9979182 -0.0013678314 0)
(1.9979032 -0.0012400244 0)
(1.9978885 -0.0011113752 0)
(1.9978741 -0.0009819207 0)
(1.9978601 -0.00085155936 0)
(1.9978469 -0.00072022228 0)
(1.9978343 -0.00058871512 0)
(1.9978216 -0.00045604645 0)
(1.9978093 -0.00032378133 0)
(1.9977979 -0.00019126392 0)
(1.9977861 -5.7057994e-05 0)
(1.9977733 7.8772768e-05 0)
(1.997761 0.00021407804 0)
(1.9977511 0.0003497395 0)
(1.9946135 -0.0058035666 0)
(1.9945565 -0.005602959 0)
(1.9945008 -0.0054000653 0)
(1.9944465 -0.0051949247 0)
(1.9943934 -0.0049875856 0)
(1.9943418 -0.0047781053 0)
(1.9942916 -0.0045665442 0)
(1.9942429 -0.0043529642 0)
(1.9941956 -0.0041374287 0)
(1.9941499 -0.003920003 0)
(1.9941058 -0.0037007542 0)
(1.9940632 -0.0034797516 0)
(1.9940222 -0.0032570657 0)
(1.9939829 -0.0030327624 0)
(1.9939452 -0.0028069085 0)
(1.9939092 -0.0025796654 0)
(1.9938749 -0.0023514278 0)
(1.9938423 -0.0021212545 0)
(1.9938111 -0.0018896969 0)
(1.9937812 -0.0016573603 0)
(1.9937524 -0.001424024 0)
(1.9937246 -0.0011890147 0)
(1.9936979 -0.00095365012 0)
(1.9936727 -0.00071851347 0)
(1.9936494 -0.00048253256 0)
(1.9899464 -0.010098911 0)
(1.9898314 -0.0098086222 0)
(1.9897189 -0.0095142815 0)
(1.989609 -0.0092159589 0)
(1.9895018 -0.0089137407 0)
(1.9893974 -0.0086077192 0)
(1.9892958 -0.0082979888 0)
(1.9891972 -0.0079846468 0)
(1.9891016 -0.0076677934 0)
(1.9890092 -0.0073475322 0)
(1.9889198 -0.0070239701 0)
(1.9888338 -0.0066972168 0)
(1.988751 -0.0063673857 0)
(1.9886716 -0.0060345924 0)
(1.9885957 -0.0056989525 0)
(1.9885233 -0.005360587 0)
(1.9884545 -0.005019646 0)
(1.9883893 -0.0046762246 0)
(1.9883279 -0.0043304421 0)
(1.9882703 -0.0039824621 0)
(1.9882166 -0.003632424 0)
(1.9881667 -0.0032804432 0)
(1.9881206 -0.0029266594 0)
(1.9880783 -0.0025713157 0)
(1.9880396 -0.0022144689 0)
(1.9842169 -0.015520092 0)
(1.9840135 -0.015128797 0)
(1.9838142 -0.014730931 0)
(1.9836193 -0.014326597 0)
(1.9834289 -0.013915915 0)
(1.9832431 -0.013499013 0)
(1.9830622 -0.013076023 0)
(1.9828862 -0.012647084 0)
(1.9827153 -0.01221234 0)
(1.9825497 -0.01177194 0)
(1.9823895 -0.011326041 0)
(1.9822348 -0.010874805 0)
(1.9820859 -0.010418397 0)
(1.9819427 -0.0099569907 0)
(1.9818055 -0.0094907642 0)
(1.9816744 -0.0090199001 0)
(1.9815494 -0.0085445833 0)
(1.9814308 -0.0080650106 0)
(1.9813186 -0.0075813827 0)
(1.981213 -0.0070938931 0)
(1.9811141 -0.0066027507 0)
(1.9810219 -0.0061081729 0)
(1.9809366 -0.0056103796 0)
(1.9808582 -0.0051095767 0)
(1.9807867 -0.0046060052 0)
(1.9775193 -0.021966026 0)
(1.9771922 -0.021460142 0)
(1.9768712 -0.020944133 0)
(1.9765566 -0.020418123 0)
(1.9762487 -0.019882267 0)
(1.9759477 -0.019336728 0)
(1.9756539 -0.018781684 0)
(1.9753676 -0.018217319 0)
(1.975089 -0.01764383 0)
(1.9748184 -0.017061425 0)
(1.974556 -0.01647032 0)
(1.9743021 -0.015870744 0)
(1.974057 -0.015262934 0)
(1.9738209 -0.014647139 0)
(1.973594 -0.014023616 0)
(1.9733766 -0.013392635 0)
(1.9731688 -0.012754471 0)
(1.9729709 -0.012109411 0)
(1.972783 -0.011457751 0)
(1.9726055 -0.010799793 0)
(1.9724384 -0.010135847 0)
(1.972282 -0.0094662334 0)
(1.9721364 -0.0087912783 0)
(1.9720018 -0.0081113139 0)
(1.9718782 -0.0074266843 0)
(1.9699882 -0.029434858 0)
(1.9694955 -0.028802059 0)
(1.9690109 -0.028154115 0)
(1.9685349 -0.027491169 0)
(1.9680679 -0.026813397 0)
(1.9676104 -0.026121 0)
(1.9671629 -0.025414195 0)
(1.9667257 -0.024693217 0)
(1.9662993 -0.023958319 0)
(1.9658842 -0.023209774 0)
(1.9654809 -0.022447872 0)
(1.9650897 -0.021672923 0)
(1.9647111 -0.020885255 0)
(1.9643454 -0.020085215 0)
(1.9639932 -0.019273166 0)
(1.9636547 -0.018449491 0)
(1.9633305 -0.017614591 0)
(1.9630208 -0.016768881 0)
(1.962726 -0.015912797 0)
(1.9624464 -0.015046789 0)
(1.9621824 -0.014171323 0)
(1.9619344 -0.013286881 0)
(1.9617025 -0.012393958 0)
(1.9614872 -0.011493066 0)
(1.9612886 -0.010584727 0)
(1.9617894 -0.038050869 0)
(1.9610804 -0.037282685 0)
(1.9603813 -0.0364924 0)
(1.959693 -0.035680145 0)
(1.959016 -0.034846097 0)
(1.9583512 -0.033990468 0)
(1.9576992 -0.033113502 0)
(1.9570609 -0.03221547 0)
(1.9564368 -0.031296676 0)
(1.9558278 -0.030357456 0)
(1.9552346 -0.029398179 0)
(1.9546579 -0.028419243 0)
(1.9540984 -0.027421083 0)
(1.9535567 -0.026404163 0)
(1.9530337 -0.02536898 0)
(1.9525299 -0.024316063 0)
(1.952046 -0.023245974 0)
(1.9515827 -0.022159306 0)
(1.9511405 -0.02105668 0)
(1.9507201 -0.019938752 0)
(1.9503221 -0.018806205 0)
(1.9499469 -0.017659749 0)
(1.9495952 -0.016500125 0)
(1.9492674 -0.0153281 0)
(1.948964 -0.014144465 0)
(1.9531383 -0.047989624 0)
(1.9521538 -0.047084785 0)
(1.9511806 -0.046148472 0)
(1.9502196 -0.045180739 0)
(1.9492721 -0.044181707 0)
(1.948339 -0.043151548 0)
(1.9474216 -0.042090481 0)
(1.9465209 -0.040998778 0)
(1.9456382 -0.039876758 0)
(1.9447745 -0.038724796 0)
(1.9439311 -0.037543319 0)
(1.9431091 -0.036332807 0)
(1.9423096 -0.035093797 0)
(1.9415338 -0.03382688 0)
(1.9407827 -0.032532703 0)
(1.9400575 -0.031211967 0)
(1.9393592 -0.029865431 0)
(1.938689 -0.028493907 0)
(1.9380478 -0.027098263 0)
(1.9374367 -0.02567942 0)
(1.9368567 -0.024238354 0)
(1.9363086 -0.022776089 0)
(1.9357934 -0.021293702 0)
(1.935312 -0.019792319 0)
(1.9348651 -0.018273111 0)
(1.9443054 -0.059403322 0)
(1.9429794 -0.058371402 0)
(1.9416646 -0.057295806 0)
(1.9403625 -0.056176397 0)
(1.9390746 -0.055013127 0)
(1.9378028 -0.053806024 0)
(1.9365486 -0.052555191 0)
(1.9353138 -0.051260806 0)
(1.9341001 -0.049923128 0)
(1.9329094 -0.048542499 0)
(1.9317433 -0.047119344 0)
(1.9306037 -0.045654179 0)
(1.9294923 -0.044147606 0)
(1.9284109 -0.04260032 0)
(1.9273612 -0.041013107 0)
(1.9263452 -0.039386847 0)
(1.9253644 -0.037722512 0)
(1.9244206 -0.036021169 0)
(1.9235154 -0.034283979 0)
(1.9226506 -0.032512195 0)
(1.9218276 -0.030707163 0)
(1.9210481 -0.028870319 0)
(1.9203136 -0.027003186 0)
(1.9196255 -0.025107374 0)
(1.9189852 -0.023184577 0)
(1.9356067 -0.072369403 0)
(1.9338692 -0.071234039 0)
(1.9321405 -0.070039734 0)
(1.9304227 -0.068785976 0)
(1.9287183 -0.067472367 0)
(1.9270295 -0.066098613 0)
(1.9253589 -0.064664529 0)
(1.9237088 -0.063170042 0)
(1.9220818 -0.061615198 0)
(1.9204806 -0.060000167 0)
(1.9189078 -0.058325249 0)
(1.917366 -0.056590879 0)
(1.9158579 -0.054797631 0)
(1.9143863 -0.052946224 0)
(1.9129538 -0.051037522 0)
(1.9115632 -0.04907254 0)
(1.9102172 -0.047052447 0)
(1.9089184 -0.044978564 0)
(1.9076694 -0.042852368 0)
(1.906473 -0.040675494 0)
(1.9053315 -0.038449726 0)
(1.9042476 -0.036177008 0)
(1.9032236 -0.03385943 0)
(1.9022619 -0.031499231 0)
(1.9013646 -0.029098794 0)
(1.9273826 -0.086860852 0)
(1.9251642 -0.085661856 0)
(1.9229489 -0.084385659 0)
(1.9207397 -0.083031104 0)
(1.9185396 -0.081597167 0)
(1.916352 -0.080082967 0)
(1.9141801 -0.078487766 0)
(1.9120275 -0.076810983 0)
(1.9098977 -0.075052201 0)
(1.9077945 -0.073211182 0)
(1.9057215 -0.071287876 0)
(1.9036827 -0.069282431 0)
(1.901682 -0.067195204 0)
(1.8997233 -0.065026767 0)
(1.8978108 -0.062777922 0)
(1.8959483 -0.060449699 0)
(1.8941401 -0.05804337 0)
(1.8923902 -0.05556045 0)
(1.8907025 -0.053002705 0)
(1.8890811 -0.05037215 0)
(1.88753 -0.047671054 0)
(1.8860529 -0.044901935 0)
(1.8846538 -0.042067566 0)
(1.8833361 -0.039170962 0)
(1.8821034 -0.036215383 0)
(1.9199686 -0.10273512 0)
(1.9172062 -0.10152883 0)
(1.9144368 -0.10022455 0)
(1.9116642 -0.098820122 0)
(1.9088923 -0.097313519 0)
(1.9061253 -0.095702903 0)
(1.9033678 -0.09398661 0)
(1.9006242 -0.092163177 0)
(1.8978995 -0.090231357 0)
(1.8951988 -0.088190143 0)
(1.8925271 -0.086038786 0)
(1.8898899 -0.083776811 0)
(1.8872927 -0.081404042 0)
(1.8847412 -0.078920616 0)
(1.8822412 -0.076326998 0)
(1.8797984 -0.073624004 0)
(1.8774188 -0.070812807 0)
(1.8751084 -0.067894954 0)
(1.8728732 -0.064872376 0)
(1.8707191 -0.061747395 0)
(1.868652 -0.058522733 0)
(1.8666778 -0.055201513 0)
(1.8648021 -0.051787257 0)
(1.8630306 -0.04828389 0)
(1.8613687 -0.044695729 0)
(1.9136611 -0.11973943 0)
(1.9103041 -0.11859685 0)
(1.9069245 -0.11733385 0)
(1.9035268 -0.11594684 0)
(1.900116 -0.11443236 0)
(1.8966971 -0.11278712 0)
(1.8932758 -0.11100806 0)
(1.8898581 -0.10909234 0)
(1.8864501 -0.10703739 0)
(1.8830584 -0.10484093 0)
(1.8796901 -0.10250101 0)
(1.8763521 -0.10001606 0)
(1.8730522 -0.097384898 0)
(1.8697979 -0.094606763 0)
(1.8665974 -0.091681372 0)
(1.8634587 -0.088608928 0)
(1.8603903 -0.085390155 0)
(1.8574005 -0.082026324 0)
(1.8544981 -0.078519277 0)
(1.8516916 -0.074871446 0)
(1.8489896 -0.071085865 0)
(1.8464007 -0.067166189 0)
(1.8439334 -0.063116696 0)
(1.8415959 -0.05894229 0)
(1.8393963 -0.054648498 0)
(1.9086859 -0.13753073 0)
(1.9047014 -0.13653328 0)
(1.9006726 -0.13539267 0)
(1.8966047 -0.13410337 0)
(1.8925031 -0.13265998 0)
(1.8883741 -0.13105724 0)
(1.8842243 -0.12929011 0)
(1.8800609 -0.12735377 0)
(1.8758917 -0.12524372 0)
(1.8717249 -0.12295577 0)
(1.8675692 -0.12048614 0)
(1.8634341 -0.11783151 0)
(1.8593292 -0.11498905 0)
(1.8552647 -0.11195648 0)
(1.8512515 -0.10873217 0)
(1.8473004 -0.10531511 0)
(1.8434229 -0.10170505 0)
(1.8396307 -0.097902496 0)
(1.8359358 -0.093908762 0)
(1.8323501 -0.089726022 0)
(1.8288859 -0.085357334 0)
(1.8255554 -0.080806676 0)
(1.8223707 -0.07607896 0)
(1.8193438 -0.071180047 0)
(1.8164864 -0.066116752 0)
(1.9051753 -0.1557072 0)
(1.9005517 -0.15494066 0)
(1.8958558 -0.15400942 0)
(1.8910932 -0.15290558 0)
(1.8862696 -0.15162124 0)
(1.8813921 -0.15014864 0)
(1.8764681 -0.14848013 0)
(1.8715059 -0.14660827 0)
(1.8665147 -0.14452592 0)
(1.8615043 -0.14222625 0)
(1.8564854 -0.13970291 0)
(1.8514696 -0.13695 0)
(1.8464691 -0.13396227 0)
(1.8414969 -0.13073513 0)
(1.8365668 -0.12726477 0)
(1.8316932 -0.12354823 0)
(1.8268911 -0.11958353 0)
(1.8221761 -0.11536969 0)
(1.8175642 -0.11090688 0)
(1.8130719 -0.10619644 0)
(1.8087159 -0.10124096 0)
(1.8045131 -0.09604436 0)
(1.8004803 -0.090611899 0)
(1.7966345 -0.084950236 0)
(1.7929921 -0.079067433 0)
(1.9031567 -0.17384634 0)
(1.8979049 -0.17339381 0)
(1.8925472 -0.17275779 0)
(1.8870886 -0.17192764 0)
(1.8815353 -0.17089254 0)
(1.8758943 -0.16964164 0)
(1.8701736 -0.16816414 0)
(1.8643823 -0.16644932 0)
(1.8585307 -0.16448666 0)
(1.8526301 -0.16226595 0)
(1.8466929 -0.15977737 0)
(1.8407328 -0.15701164 0)
(1.8347646 -0.15396013 0)
(1.8288042 -0.15061498 0)
(1.8228688 -0.14696928 0)
(1.8169765 -0.14301713 0)
(1.8111464 -0.13875389 0)
(1.8053987 -0.1341762 0)
(1.7997543 -0.1292822 0)
(1.794235 -0.12407162 0)
(1.7888628 -0.11854589 0)
(1.7836605 -0.11270827 0)
(1.778651 -0.10656389 0)
(1.7738572 -0.10011988 0)
(1.7693018 -0.093385348 0)
(1.9025574 -0.19154331 0)
(1.8967092 -0.19147833 0)
(1.8907166 -0.19121522 0)
(1.8845839 -0.19074027 0)
(1.8783166 -0.19003944 0)
(1.8719216 -0.18909839 0)
(1.8654068 -0.18790265 0)
(1.8587815 -0.18643764 0)
(1.8520567 -0.18468881 0)
(1.8452445 -0.1826418 0)
(1.838359 -0.18028252 0)
(1.8314157 -0.17759738 0)
(1.8244317 -0.1745734 0)
(1.8174259 -0.17119844 0)
(1.8104188 -0.1674614 0)
(1.8034325 -0.16335238 0)
(1.7964908 -0.15886293 0)
(1.7896187 -0.15398626 0)
(1.7828427 -0.14871743 0)
(1.7761907 -0.14305354 0)
(1.7696912 -0.13699398 0)
(1.7633739 -0.13054052 0)
(1.7572687 -0.12369753 0)
(1.7514062 -0.11647203 0)
(1.7458167 -0.10887387 0)
(1.9032204 -0.20844329 0)
(1.8968247 -0.20882434 0)
(1.8902428 -0.20899764 0)
(1.8834778 -0.20894636 0)
(1.876534 -0.20865301 0)
(1.8694171 -0.20809955 0)
(1.8621345 -0.20726746 0)
(1.8546952 -0.20613789 0)
(1.8471099 -0.20469172 0)
(1.8393915 -0.20290977 0)
(1.8315546 -0.20077297 0)
(1.8236164 -0.19826255 0)
(1.8155959 -0.19536026 0)
(1.8075146 -0.19204866 0)
(1.7993964 -0.18831135 0)
(1.7912672 -0.18413326 0)
(1.7831555 -0.17950098 0)
(1.7750917 -0.17440304 0)
(1.7671085 -0.16883024 0)
(1.7592402 -0.16277594 0)
(1.7515229 -0.15623635 0)