/*--------------------------------*- C++ -*----------------------------------*\
  =========                 |
  \\      /  F ield         | OpenFOAM: The Open Source CFD Toolbox
   \\    /   O peration     | Website:  https://openfoam.org
    \\  /    A nd           | Version:  8
     \\/     M anipulation  |
\*---------------------------------------------------------------------------*/
FoamFile
{
    version     2.0;
    format      ascii;
    class       volVectorField;
    location    "10";
    object      U;
}
// * * * * * * * * * * * * * * * * * * * * * * * * * * * * * * * * * * * * * //

dimensions      [0 1 -1 0 0 0 0];

internalField   nonuniform List<vector> 
18474
(
(2.0000501 -0.00036494118 0)
(2.0000003 -0.00064136372 0)
(2.0000247 -0.00070766184 0)
(2.0000024 -0.00085231323 0)
(2.0000133 -0.0009259218 0)
(2.000004 -0.0010202187 0)
(2.0000073 -0.001082275 0)
(2.000003 -0.0011440094 0)
(2.0000031 -0.0011862396 0)
(2.0000005 -0.0012198819 0)
(1.999999 -0.0012387112 0)
(1.9999963 -0.0012466688 0)
(1.9999939 -0.0012427966 0)
(1.9999916 -0.0012292114 0)
(1.9999896 -0.0012067636 9.6536999e-24)
(1.9999879 -0.0011771892 1.0808175e-23)
(1.9999863 -0.0011419285 3.5064773e-25)
(1.9999849 -0.0011025095 -2.5464219e-23)
(1.9999836 -0.0010603026 0)
(1.9999824 -0.0010165426 0)
(1.9999812 -0.00097228336 -6.9210015e-23)
(1.9999802 -0.00092839292 -5.3671847e-25)
(1.9999792 -0.00088553439 1.6793664e-22)
(2.0004499 -0.001264938 0)
(2.0002047 -0.0020947159 0)
(2.0002953 -0.0022861021 0)
(2.0001735 -0.0027847544 0)
(2.0002126 -0.0030251428 0)
(2.0001527 -0.0033618396 0)
(2.0001559 -0.0035789917 0)
(2.0001186 -0.0038078099 0)
(2.0001021 -0.0039668706 0)
(2.0000692 -0.0041033405 0)
(2.0000417 -0.0041895269 0)
(2.0000083 -0.0042424441 0)
(1.9999759 -0.004255584 0)
(1.9999416 -0.0042371281 -3.5307317e-23)
(1.9999075 -0.0041885622 7.68773e-23)
(1.9998736 -0.0041156991 -4.1985877e-23)
(1.9998408 -0.0040228493 0)
(1.9998095 -0.0039150534 0)
(1.99978 -0.0037966927 0)
(1.9997526 -0.0036718342 1.2622125e-22)
(1.9997274 -0.0035439393 1.1777459e-24)
(1.9997043 -0.003415886 -1.5244901e-22)
(1.9996834 -0.0032900053 -1.6943524e-22)
(2.0011821 -0.0023265612 0)
(2.0007562 -0.0037085219 0)
(2.00087 -0.0040243946 0)
(2.0006378 -0.0049179121 0)
(2.0006814 -0.0053391771 0)
(2.0005508 -0.0059640972 0)
(2.0005323 -0.0063639936 0)
(2.0004358 -0.006803321 0)
(2.0003754 -0.0071140046 -5.6511375e-24)
(2.0002812 -0.0073945994 5.9596194e-24)
(2.0001937 -0.0075840781 2.6985459e-23)
(2.000091 -0.0077180935 -2.8723003e-23)
(1.9999875 -0.0077802946 -6.4956963e-23)
(1.9998786 -0.0077868195 -1.6863954e-24)
(1.9997698 -0.0077382714 -1.6531748e-24)
(1.9996616 -0.0076453425 8.5033309e-23)
(1.9995568 -0.0075149337 0)
(1.9994565 -0.0073560174 -1.0538725e-22)
(1.9993621 -0.0071761432 1.1486508e-22)
(1.9992741 -0.0069825407 0)
(1.9991929 -0.0067813363 2.833106e-22)
(1.9991188 -0.0065776798 -3.1014465e-22)
(1.9990515 -0.0063758095 -3.4500745e-22)
(2.0021839 -0.0035104176 0)
(2.0016022 -0.0054306347 0)
(2.0017136 -0.0058692489 0)
(2.0013767 -0.0071728642 0)
(2.001408 -0.0077814646 0)
(2.0011992 -0.0087218869 0)
(2.0011436 -0.0093229479 -2.4153533e-24)
(2.0009729 -0.010006415 -7.9737651e-24)
(2.0008486 -0.0104977 3.384475e-23)
(2.0006683 -0.01095743 -2.4073302e-23)
(2.0004917 -0.011282337 5.4702098e-23)
(2.0002879 -0.011530513 -5.8223333e-23)
(2.0000783 -0.011671866 -6.6072063e-23)
(1.9998582 -0.011732126 -1.838983e-24)
(1.9996368 -0.011709434 7.8434485e-23)
(1.9994162 -0.011619721 0)
(1.9992018 -0.011472052 -1.9554539e-22)
(1.9989963 -0.011279571 2.1263796e-22)
(1.9988023 -0.011053045 0)
(1.9986213 -0.010803143 0)
(1.9984542 -0.010538905 2.9111665e-22)
(1.9983013 -0.010268045 -3.1862049e-22)
(1.9981625 -0.0099970087 0)
(2.0034319 -0.0047804162 0)
(2.002714 -0.007215564 0)
(2.0028102 -0.0077733516 0)
(2.002378 -0.0094874515 0)
(2.0023873 -0.010285771 0)
(2.0021004 -0.011556407 0)
(2.0019985 -0.012373562 0)
(2.0017442 -0.013325099 0)
(2.0015391 -0.014019813 -4.6351627e-23)
(2.0012535 -0.014685813 4.8832096e-23)
(2.0009637 -0.015171572 0)
(2.0006306 -0.015561463 0)
(2.0002828 -0.015807565 0)
(1.9999168 -0.015945266 0)
(1.999546 -0.015969856 0)
(1.9991752 -0.015902329 0)
(1.9988132 -0.015753511 0)
(1.9984651 -0.015540843 0)
(1.9981355 -0.015278344 0)
(1.9978273 -0.014980397 0)
(1.9975422 -0.014659232 0)
(1.9972809 -0.014325442 0)
(1.9970434 -0.013988015 0)
(2.0048954 -0.0060946565 0)
(2.0040653 -0.0090158887 0)
(2.0041393 -0.0096924187 0)
(2.0036256 -0.011807479 0)
(2.0036091 -0.012799092 -4.2355755e-24)
(2.0032497 -0.014407353 -4.7838594e-24)
(2.0030948 -0.015452851 2.9263259e-23)
(2.0027523 -0.016688652 -2.0618876e-23)
(2.0024548 -0.017604094 4.7196905e-23)
(2.0020492 -0.018496682 -4.972216e-23)
(2.0016253 -0.019164199 0)
(2.0011372 -0.019717905 6.2983983e-23)
(2.000622 -0.020088955 7.1922302e-23)
(2.0000759 -0.020322689 4.6318487e-24)
(1.9995193 -0.020411285 -1.661521e-22)
(1.9989599 -0.020379989 0)
(1.9984112 -0.020240999 -2.0987427e-22)
(1.9978814 -0.020016202 4.6086173e-22)
(1.9973782 -0.019722942 -2.5352039e-22)
(1.9969062 -0.019379621 -2.857371e-22)
(1.9964685 -0.019001987 3.1230611e-22)
(1.9960666 -0.018603887 0)
(1.9957005 -0.018197251 3.8728166e-22)
(2.006532 -0.0074069442 0)
(2.0056183 -0.010776117 0)
(2.0056683 -0.011571026 0)
(2.0050906 -0.014067769 1.997837e-24)
(2.0050484 -0.015255703 -2.0433772e-24)
(2.0046255 -0.017199741 0)
(2.0044163 -0.018480823 2.011949e-23)
(2.0039864 -0.020008044 -2.0947401e-23)
(2.0035898 -0.021156775 -4.822556e-23)
(2.0030543 -0.022290872 5.0807105e-23)
(2.0024798 -0.02315769 0)
(2.0018157 -0.023892225 0)
(2.0011068 -0.024406476 1.4413819e-22)
(2.0003482 -0.024754074 -1.5477147e-22)
(1.9995705 -0.024921168 1.7785942e-22)
(1.9987847 -0.024938724 -1.9232787e-22)
(1.9980095 -0.024818918 0)
(1.9972578 -0.024588329 0)
(1.9965407 -0.024267574 0)
(1.9958659 -0.023879353 0)
(1.9952384 -0.023443251 -3.3425246e-22)
(1.9946606 -0.022976782 3.6560326e-22)
(1.9941333 -0.022495265 0)
(2.0082964 -0.0086746281 0)
(2.0073284 -0.01244019 0)
(2.0073578 -0.013347127 0)
(2.0067351 -0.01619534 0)
(2.0066707 -0.017575328 0)
(2.0061967 -0.019840902 0)
(2.0059375 -0.021356316 0)
(2.0054253 -0.023173883 0)
(2.0049286 -0.024563064 0)
(2.0042591 -0.025948887 0)
(2.0035233 -0.027029756 0)
(2.0026676 -0.027962115 -1.3454366e-22)
(2.0017411 -0.028640717 1.4388463e-22)
(2.0007454 -0.029122362 1.6692035e-22)
(1.9997123 -0.029385383 -1.7991226e-22)
(1.998664 -0.029468846 0)
(1.9976228 -0.02938246 0)
(1.996608 -0.029157018 0)
(1.9956355 -0.028816448 0)
(1.9947166 -0.028387719 0)
(1.9938592 -0.027894544 0)
(1.9930675 -0.027358456 0)
(1.992343 -0.026798634 4.3835472e-22)
(2.0101391 -0.0098670704 0)
(2.0091439 -0.013965441 0)
(2.0091597 -0.014971503 3.8182677e-24)
(2.0085106 -0.018129249 -1.2072293e-23)
(2.0084326 -0.019686034 -9.276252e-24)
(2.0079228 -0.022246815 1.8129058e-23)
(2.0076232 -0.023986886 -4.1849975e-23)
(2.0070397 -0.026086162 4.3571652e-23)
(2.0064487 -0.02771827 -5.0769484e-23)
(2.0056485 -0.029363217 -2.8071532e-24)
(2.0047488 -0.030673511 -2.9846013e-24)
(2.003693 -0.031824892 6.6681531e-23)
(2.0025342 -0.032689141 1.5615959e-22)
(2.0012805 -0.033332507 -3.4243022e-22)
(1.9999661 -0.033721476 1.8833603e-22)
(1.9986219 -0.033895203 -2.1898567e-22)
(1.9972788 -0.033867105 -7.5965905e-24)
(1.9959612 -0.033667828 2.6646068e-22)
(1.9946918 -0.033325072 0)
(1.9934867 -0.032869613 0)
(1.9923576 -0.032329359 -3.8111615e-22)
(1.9913113 -0.03173013 4.1674091e-22)
(1.9903509 -0.031095386 0)
(2.0120106 -0.010969811 0)
(2.0110092 -0.015333032 0)
(2.0110204 -0.016418435 -3.8704069e-24)
(2.0103628 -0.019837265 3.9222089e-24)
(2.0102846 -0.021547263 -1.7958339e-23)
(2.009757 -0.02437059 3.8016986e-23)
(2.0094329 -0.026319922 -2.0238841e-23)
(2.0087951 -0.028687768 0)
(2.008124 -0.030562933 0)
(2.0072054 -0.032473822 0)
(2.0061492 -0.034031171 -6.4912903e-23)
(2.0048959 -0.03542546 6.9120614e-23)
(2.0035015 -0.036507799 0)
(2.001976 -0.037347348 0)
(2.0003652 -0.037901005 0)
(1.9986988 -0.038204077 0)
(1.9970224 -0.038270464 2.6032383e-22)
(1.9953669 -0.038132584 -5.7529087e-22)
(1.9937613 -0.037818012 3.1839524e-22)
(1.992229 -0.037362148 -3.6701104e-22)
(1.9907861 -0.036796408 8.1127037e-22)
(1.9894432 -0.036151103 -4.4862265e-22)
(1.9882059 -0.035454326 0)
(2.0138665 -0.011983793 0)
(2.0128729 -0.016548053 0)
(2.0128894 -0.017691607 0)
(2.0122407 -0.021322212 0)
(2.0121788 -0.023160024 0)
(2.0116539 -0.026212656 0)
(2.0113261 -0.028354655 0)
(2.0106572 -0.030977357 0)
(2.0099282 -0.033095968 0)
(2.0089129 -0.035281005 0)
(2.0077185 -0.037105813 0)
(2.0062819 -0.038772158 0)
(2.0046594 -0.040111114 0)
(2.0028641 -0.041188884 0)
(2.0009477 -0.041956997 0)
(1.9989488 -0.042442993 0)
(1.9969141 -0.042651524 0)
(1.9948914 -0.042622502 0)
(1.9929159 -0.04238089 0)
(1.9910178 -0.041963645 0)
(1.9892204 -0.041406576 0)
(1.987539 -0.040743742 -2.4811881e-22)
(1.985983 -0.040008271 5.4888265e-22)
(2.0156708 -0.012919922 6.8350469e-27)
(2.0146931 -0.017631952 -6.8538732e-27)
(2.014726 -0.018815577 0)
(2.0141018 -0.022614289 0)
(2.0140744 -0.02455786 1.872802e-23)
(2.0135741 -0.027810621 -3.973362e-23)
(2.0132672 -0.030131276 4.3712075e-23)
(2.0125949 -0.032997393 1.4959994e-24)
(2.011837 -0.035361567 -2.6134759e-23)
(2.010755 -0.037830863 -6.2170783e-23)
(2.009451 -0.039945738 6.5890736e-23)
(2.0078568 -0.041916562 0)
(2.0060269 -0.043554552 0)
(2.0039757 -0.044922461 0)
(2.0017578 -0.045956537 -1.1472304e-22)
(1.999423 -0.046686635 1.2409832e-22)
(1.9970235 -0.047103764 0)
(1.9946112 -0.047239053 0)
(1.9922381 -0.047126509 -1.8890372e-22)
(1.9899417 -0.046799978 4.1928361e-22)
(1.9877522 -0.046297141 -2.3286314e-22)
(1.9856921 -0.045656736 0)
(1.9837754 -0.044916336 0)
(2.0173978 -0.013793986 0)
(2.0164406 -0.018612293 0)
(2.0165002 -0.019822948 0)
(2.0159147 -0.023755324 0)
(2.0159402 -0.025788552 0)
(2.0154868 -0.029218501 0)
(2.0152268 -0.031707886 0)
(2.0145818 -0.034809086 0)
(2.0138285 -0.037422367 0)
(2.0127157 -0.040186777 0)
(2.0113389 -0.042614368 0)
(2.0096226 -0.04492218 0)
(2.0076176 -0.046902776 0)
(2.005337 -0.048613062 0)
(2.002838 -0.049975218 0)
(2.0001735 -0.051008319 0)
(1.9974101 -0.051702547 0)
(1.994604 -0.052077163 0)
(1.9918142 -0.052155537 0)
(1.9890927 -0.051981256 2.2998989e-22)
(1.9864799 -0.051589937 -2.51255e-22)
(1.9840044 -0.051021983 0)
(1.9816874 -0.050320675 0)
(2.0190301 -0.014619342 0)
(2.0180972 -0.019513237 0)
(2.0181927 -0.020743421 0)
(2.0176587 -0.024784347 0)
(2.0177542 -0.026897146 0)
(2.0173689 -0.030487258 -2.1615989e-23)
(2.0171816 -0.033138839 2.2364247e-23)
(2.0165945 -0.036468887 2.6456108e-23)
(2.0158813 -0.039334561 1.8247802e-24)
(2.014777 -0.04240341 2.0878387e-24)
(2.0133695 -0.045163384 -7.2844019e-23)
(2.011574 -0.047837276 -2.6533093e-24)
(2.0094356 -0.050200309 4.5711035e-23)
(2.0069638 -0.05230291 0)
(2.0042152 -0.05405199 0)
(2.0012465 -0.05545611 0)
(1.9981285 -0.056492161 8.3443754e-23)
(1.9949328 -0.057177826 -9.074422e-23)
(1.9917233 -0.057527077 -2.1771667e-22)
(1.9885618 -0.057571952 2.3758645e-22)
(1.9854996 -0.057356066 0)
(1.9825791 -0.056921569 1.592996e-22)
(1.9798263 -0.056312648 -1.7434816e-22)
(2.0205578 -0.015403838 9.3131867e-25)
(2.0196533 -0.02035107 3.0837008e-24)
(2.0197925 -0.021597888 -8.3352496e-24)
(2.019321 -0.025729569 1.3693885e-23)
(2.0195015 -0.027916207 6.0985406e-25)
(2.0192032 -0.031653542 7.1387326e-25)
(2.0191123 -0.034462291 -1.1515712e-23)
(2.0186121 -0.038015127 0)
(2.0179736 -0.041134099 0)
(2.0169175 -0.044512723 0)
(2.0155238 -0.047618879 3.8929785e-23)
(2.0136964 -0.050681139 -8.5828718e-23)
(2.0114729 -0.053459095 9.8175413e-23)
(2.0088565 -0.055996688 -5.450248e-23)
(2.0059015 -0.058185718 6.6852017e-23)
(2.0026648 -0.060022756 -7.2342722e-23)
(1.9992216 -0.06147088 -8.843036e-23)
(1.9956496 -0.062536885 1.9776166e-22)
(1.9920276 -0.063229018 -2.2718149e-22)
(1.9884247 -0.063575391 -6.1299199e-24)
(1.984903 -0.063606608 2.975902e-22)
(1.9815129 -0.063369706 -1.6618704e-22)
(1.978296 -0.062917016 -1.9593693e-22)
(2.0219763 -0.016150499 0)
(2.0211053 -0.02113436 -2.0651027e-24)
(2.0212942 -0.022397577 -2.3537725e-24)
(2.0208947 -0.02660685 4.4868524e-24)
(2.0211719 -0.028863751 0)
(2.0209766 -0.032737287 0)
(2.0210023 -0.035697741 0)
(2.0206145 -0.039465643 0)
(2.0200826 -0.042834728 -3.1478556e-23)
(2.0191123 -0.046522654 3.3201114e-23)
(2.0177762 -0.049980921 0)
(2.0159653 -0.053444603 0)
(2.0137086 -0.056659758 5.268533e-23)
(2.0110004 -0.059664673 -5.6638356e-23)
(2.0078902 -0.062336537 0)
(2.0044326 -0.064659878 0)
(2.0007047 -0.066582854 0)
(1.996789 -0.068099079 0)
(1.9927723 -0.069206054 0)
(1.9887367 -0.06992425 0)
(1.9847563 -0.070285585 0)
(1.9808902 -0.070324451 0)
(1.9771894 -0.070091886 0)
(2.0232849 -0.016858749 0)
(2.0224532 -0.021865853 0)
(2.0226958 -0.023146157 0)
(2.0223757 -0.027422265 0)
(2.0227582 -0.02974619 0)
(2.0226783 -0.033745159 1.1865277e-23)
(2.0228365 -0.036850098 -1.2278941e-23)
(2.0225822 -0.040822572 1.4527156e-23)
(2.0221842 -0.044433692 -3.1478068e-23)
(2.0213333 -0.048423871 1.7136479e-23)
(2.0200955 -0.052231514 -2.079477e-23)
(2.0183479 -0.056099365 2.2167793e-23)
(2.0161104 -0.059762255 2.7297732e-23)
(2.013366 -0.063254403 -6.085154e-23)
(2.0101574 -0.066439541 -2.4722345e-24)
(2.0065341 -0.069290575 3.9469851e-23)
(2.0025723 -0.071740586 -4.9072876e-23)
(1.9983571 -0.073769347 5.3384672e-23)
(1.9939812 -0.075360665 0)
(1.9895364 -0.076524856 7.6136019e-23)
(1.9851077 -0.077284675 4.4803231e-24)
(1.9807707 -0.077676079 -9.5876983e-23)
(1.9765824 -0.077745249 1.1508776e-22)
(2.024485 -0.017526113 0)
(2.0236989 -0.022545061 0)
(2.0239975 -0.023842947 0)
(2.0237625 -0.028176126 0)
(2.0242553 -0.030563113 -5.5980425e-24)
(2.0242995 -0.034676119 5.7528804e-24)
(2.0246017 -0.037916099 0)
(2.0244971 -0.042079637 0)
(2.0242548 -0.045919964 0)
(2.0235515 -0.050199047 0)
(2.0224477 -0.054345069 0)
(2.0208061 -0.058609757 0)
(2.0186375 -0.062719098 0)
(2.0159122 -0.066705268 0)
(2.0126643 -0.070420307 0)
(2.0089354 -0.073826678 0)
(2.0047983 -0.076842653 0)
(2.000338 -0.079433847 0)
(1.9956511 -0.081569435 -6.9585581e-23)
(1.9908361 -0.083246778 7.5965392e-23)
(1.9859885 -0.084478382 0)
(1.9811944 -0.085292587 0)
(1.9765271 -0.085733414 0)
(2.0255799 -0.018149724 0)
(2.0248453 -0.023170529 0)
(2.0252004 -0.024485792 0)
(2.0250545 -0.028866635 0)
(2.0256595 -0.031311648 0)
(2.0258333 -0.035526488 0)
(2.0262864 -0.038890059 0)
(2.0263427 -0.043228601 -1.5524306e-23)
(2.0262722 -0.047281406 1.6282503e-23)
(2.0257387 -0.051830812 0)
(2.0247983 -0.056297228 0)
(2.0232996 -0.060942589 0)
(2.0212447 -0.065486347 0)
(2.0185905 -0.069960847 3.3663129e-23)
(2.0153612 -0.074208567 -7.5490981e-23)
(2.0115884 -0.078183338 4.2396169e-23)
(2.0073391 -0.081789662 0)
(2.002695 -0.084979204 0)
(1.9977542 -0.08770598 0)
(1.99262 -0.089953386 0)
(1.9873958 -0.091721262 0)
(1.982178 -0.093027643 0)
(1.9770512 -0.093911261 0)
(2.0265741 -0.018727316 0)
(2.0258966 -0.023741303 0)
(2.0263071 -0.025072984 0)
(2.0262527 -0.029492316 0)
(2.0269688 -0.031989397 6.0461288e-24)
(2.0272747 -0.03629334 -6.214004e-24)
(2.0278814 -0.03976768 -7.2556887e-24)
(2.0281052 -0.044263465 -4.7317077e-25)
(2.0282169 -0.048509351 8.4284954e-24)
(2.0278692 -0.053306749 -1.0052808e-23)
(2.0271146 -0.058070368 2.2047497e-23)
(2.0257891 -0.063073286 -1.2136872e-23)
(2.0238861 -0.068030556 0)
(2.0213494 -0.072976833 -1.7313057e-23)
(2.0181926 -0.077747341 -1.47415e-24)
(2.014436 -0.082289459 2.1837143e-23)
(2.0101383 -0.086495569 0)
(2.0053757 -0.090304373 0)
(2.0002446 -0.093654735 0)
(1.9948508 -0.096515358 0)
(1.9893035 -0.098872236 0)
(1.9837075 -0.10073159 0)
(1.9781572 -0.10212341 0)
(2.0274733 -0.019257749 0)
(2.0268572 -0.024257633 -1.2474098e-24)
(2.0273207 -0.025604181 1.2540067e-24)
(2.0273587 -0.030053232 -2.9139142e-24)
(2.0281826 -0.032595875 6.123438e-24)
(2.0286207 -0.03697615 -3.2381406e-24)
(2.02938 -0.040547834 0)
(2.029774 -0.04518237 0)
(2.0300729 -0.04960057 -9.2448221e-24)
(2.0299211 -0.054621457 -6.0816702e-25)
(2.029368 -0.059655774 1.1000343e-23)
(2.0282383 -0.064988297 1.3344984e-23)
(2.026518 -0.070331555 -1.4299261e-23)
(2.0241379 -0.075724399 -1.7752987e-23)
(2.0211011 -0.080997094 1.9168365e-23)
(2.0174158 -0.086092885 0)
(2.013131 -0.090894079 2.8492003e-23)
(2.0083149 -0.095327988 -3.1013802e-23)
(2.0030599 -0.099319107 0)
(1.9974712 -0.10282136 -4.653159e-23)
(1.9916615 -0.1058061 5.0875837e-23)
(1.9857419 -0.10826643 0)
(1.9798158 -0.11022157 -7.4486122e-23)
(2.0282835 -0.019741059 0)
(2.0277323 -0.02472107 0)
(2.0282452 -0.026080593 -1.4020817e-24)
(2.0283753 -0.030551217 -1.6255929e-24)
(2.029302 -0.033132805 3.1073579e-24)
(2.0298701 -0.037577072 0)
(2.0307783 -0.041232784 0)
(2.0313417 -0.045987717 4.3167538e-24)
(2.0318284 -0.050557253 -4.5289457e-24)
(2.0318775 -0.055776387 -1.0687309e-23)
(2.0315352 -0.061053348 1.1343494e-23)
(2.0306171 -0.06668475 1.3686964e-23)
(2.0291024 -0.072382186 -3.0362246e-23)
(2.0269104 -0.078190202 1.6887653e-23)
(2.0240336 -0.083936261 2.1148508e-23)
(2.0204682 -0.089561712 1.8836912e-24)
(2.0162522 -0.094941037 -2.6930822e-23)
(2.0114447 -0.099992094 0)
(2.0061316 -0.10462638 0)
(2.000415 -0.10878367 0)
(1.9944083 -0.11242044 0)
(1.9882269 -0.11551575 0)
(1.9819809 -0.11807639 -3.9077467e-23)
(2.0290112 -0.020178501 -6.2782253e-25)
(2.0285275 -0.025134408 6.2692667e-25)
(2.0290852 -0.026504888 1.4695144e-24)
(2.0293064 -0.030989872 -1.4883088e-24)
(2.030329 -0.033604061 0)
(2.0310238 -0.03810091 0)
(2.0320743 -0.04182805 0)
(2.0328037 -0.046685958 0)
(2.0334746 -0.051386622 0)
(2.0337247 -0.056779272 5.5137715e-24)
(2.0335966 -0.0622708 -1.2042174e-23)
(2.032899 -0.068169416 6.6033586e-24)
(2.0316048 -0.074187052 0)
(2.0296234 -0.080375003 -9.2618513e-24)
(2.0269375 -0.086559803 1.0003236e-23)
(2.0235314 -0.09268291 0)
(2.0194322 -0.09861323 0)
(2.0146884 -0.10426127 0)
(2.0093779 -0.10952727 0)
(2.0035976 -0.11433802 2.4782565e-23)
(1.9974592 -0.11863557 -2.7106706e-23)
(1.9910799 -0.12238467 0)
(1.9845743 -0.12557855 -4.0742604e-23)
(1.9999783 -0.00084210775 -8.4107821e-23)
(1.9999774 -0.00079689403 1.7524993e-22)
(1.9999765 -0.00075085003 8.1770833e-25)
(1.9999757 -0.00070432323 -1.8817008e-22)
(1.9999748 -0.00065763597 0)
(1.9999741 -0.0006110961 0)
(1.9999734 -0.00056498741 0)
(1.9999727 -0.00051956677 0)
(1.9999722 -0.00047506073 0)
(1.9999717 -0.000431666 0)
(1.9999712 -0.0003895468 0)
(1.9999708 -0.00034883978 0)
(1.9999705 -0.00030964735 0)
(1.9999702 -0.00027205143 0)
(1.99997 -0.00023610683 3.0666916e-22)
(1.9999698 -0.00020184185 -3.2066777e-22)
(1.9999697 -0.00016927195 0)
(1.9999696 -0.000138393 -3.4975436e-22)
(1.9999696 -0.00010918615 4.2629748e-26)
(1.9999695 -8.1621484e-05 3.7907957e-22)
(1.9999695 -5.5657317e-05 3.9326223e-22)
(1.9999695 -3.1240123e-05 -4.0709762e-22)
(1.9999695 -8.3228612e-06 0)
(1.9999696 1.3148119e-05 0)
(1.9999696 3.3232393e-05 0)
(1.9999697 5.2008931e-05 0)
(1.9999697 6.9628148e-05 0)
(1.9996637 -0.0031618219 1.6922913e-22)
(1.9996444 -0.0030275739 1.7636476e-22)
(1.9996261 -0.0028902164 -1.8215512e-22)
(1.9996087 -0.0027508574 -1.901844e-22)
(1.9995923 -0.0026105182 3.9515402e-22)
(1.999577 -0.0024701851 -2.0562168e-22)
(1.9995627 -0.0023307663 0)
(1.9995495 -0.0021930892 2.2475264e-22)
(1.9995374 -0.0020578937 4.4893922e-25)
(1.9995262 -0.0019258042 -4.9109463e-22)
(1.999516 -0.0017973909 5.1403133e-22)
(1.9995068 -0.0016730767 -2.6896389e-22)
(1.9994984 -0.0015532385 0)
(1.9994909 -0.001438163 0)
(1.9994841 -0.0013280067 0)
(1.999478 -0.0012229256 0)
(1.9994725 -0.0011229637 0)
(1.9994676 -0.00102806 -3.5203067e-22)
(1.9994633 -0.00093836174 3.6679085e-22)
(1.9994594 -0.00085372889 -3.8134381e-22)
(1.9994559 -0.0007739204 1.0266107e-25)
(1.9994529 -0.00069891022 4.0946154e-22)
(1.9994501 -0.00062851782 0)
(1.9994477 -0.00056255467 0)
(1.9994455 -0.00050083794 -4.4457507e-22)
(1.9994436 -0.00044314955 4.5364743e-22)
(1.999442 -0.00038918847 0)
(1.9989878 -0.0061689695 3.4461785e-22)
(1.9989257 -0.0059511444 0)
(1.9988663 -0.0057272164 -3.731897e-22)
(1.99881 -0.0054991014 3.8622481e-22)
(1.998757 -0.0052685783 0)
(1.9987072 -0.0050373699 0)
(1.9986609 -0.0048070663 0)
(1.9986179 -0.0045791216 0)
(1.9985782 -0.0043548363 0)
(1.9985417 -0.0041353004 0)
(1.9985084 -0.0039215052 5.2541381e-22)
(1.998478 -0.0037142575 6.8421673e-25)
(1.9984504 -0.0035142063 -1.1512403e-21)
(1.9984254 -0.0033218526 -4.5809997e-25)
(1.9984028 -0.0031374361 1.2612605e-21)
(1.9983824 -0.0029612345 -6.5934525e-22)
(1.998364 -0.0027935482 0)
(1.9983475 -0.0026341313 0)
(1.9983327 -0.0024828812 -7.4879712e-22)
(1.9983194 -0.0023399724 1.5569784e-21)
(1.9983076 -0.0022053321 -8.0756522e-22)
(1.9982969 -0.0020786104 -8.3527974e-22)
(1.9982874 -0.0019594564 8.6170536e-22)
(1.9982788 -0.0018475745 0)
(1.9982711 -0.0017426969 0)
(1.9982643 -0.001644491 0)
(1.9982583 -0.001552519 0)
(1.998031 -0.0097172114 0)
(1.9979026 -0.0094206045 3.7038134e-22)
(1.99778 -0.0091139512 -3.8250366e-22)
(1.9976636 -0.0088000309 0)
(1.9975539 -0.0084814434 -4.1683183e-22)
(1.997451 -0.0081607168 4.3294037e-22)
(1.9973552 -0.0078402014 4.5379816e-22)
(1.9972663 -0.0075220711 -9.4691324e-22)
(1.9971843 -0.007208195 4.9455709e-22)
(1.997109 -0.0069002864 5.1882253e-22)
(1.9970401 -0.0065999161 -5.4207565e-22)
(1.9969774 -0.0063081504 0)
(1.9969204 -0.0060260424 0)
(1.9968688 -0.0057545167 0)
(1.9968223 -0.0054939715 -6.5202612e-22)
(1.9967803 -0.0052445983 6.8133376e-22)
(1.9967426 -0.0050069826 7.1204527e-22)
(1.9967087 -0.0047812947 -7.4257073e-22)
(1.9966783 -0.0045670448 0)
(1.996651 -0.0043638641 0)
(1.9966265 -0.0041721659 0)
(1.9966046 -0.0039921305 8.6230531e-22)
(1.9965851 -0.0038231674 -1.778517e-21)
(1.9965677 -0.0036645726 9.1400903e-22)
(1.9965521 -0.0035157923 0)
(1.9965382 -0.0033764563 0)
(1.9965259 -0.0032459901 0)
(1.996818 -0.013636863 0)
(1.9965977 -0.013262044 0)
(1.996387 -0.01287223 0)
(1.9961869 -0.012471161 0)
(1.995998 -0.012062357 0)
(1.9958208 -0.011649261 0)
(1.9956555 -0.011235089 0)
(1.9955021 -0.01082282 0)
(1.9953605 -0.010415165 0)
(1.9952303 -0.010014318 0)
(1.9951112 -0.0096224514 0)
(1.9950026 -0.009241447 5.9529719e-22)
(1.9949039 -0.0088724312 1.0157986e-24)
(1.9948145 -0.008516564 -6.5172623e-22)
(1.9947338 -0.0081748805 0)
(1.994661 -0.0078478965 0)
(1.9945956 -0.0075358189 0)
(1.9945368 -0.0072388124 0)
(1.9944841 -0.0069571207 8.0994321e-22)
(1.9944368 -0.0066906718 -8.4159382e-22)
(1.9943944 -0.0064387147 0)
(1.9943565 -0.0062004043 0)
(1.9943225 -0.0059763833 0)
(1.9942922 -0.005766721 0)
(1.9942652 -0.0055704562 9.7884652e-22)
(1.9942413 -0.0053868048 -9.9830075e-22)
(1.9942199 -0.0052149559 -1.0183344e-21)
(1.9953526 -0.017770593 -7.7754287e-22)
(1.9950121 -0.017312034 -3.4661289e-24)
(1.9946861 -0.016832286 8.418306e-22)
(1.9943761 -0.016336188 -4.3723358e-22)
(1.9940833 -0.015828318 0)
(1.9938083 -0.015313183 0)
(1.9935516 -0.014795024 5.0154016e-22)
(1.9933133 -0.014277775 -5.2232647e-22)
(1.9930932 -0.013765013 0)
(1.9928908 -0.01325991 5.751107e-22)
(1.9927056 -0.01276527 -1.2030791e-21)
(1.9925367 -0.012283161 1.2605799e-21)
(1.9923833 -0.011815678 -1.3206413e-21)
(1.9922443 -0.011364671 6.9092318e-22)
(1.9921189 -0.010930851 7.2434256e-22)
(1.9920059 -0.010515181 -7.5649486e-22)
(1.9919044 -0.010118535 -7.9111171e-22)
(1.9918134 -0.0097409896 8.2455822e-22)
(1.9917317 -0.0093823666 0)
(1.9916587 -0.0090425768 0)
(1.9915933 -0.0087217418 0)
(1.9915349 -0.0084194791 -9.5739062e-22)
(1.9914826 -0.0081346651 -7.489173e-26)
(1.9914359 -0.0078664261 1.0141253e-21)
(1.9913943 -0.0076147892 0)
(1.9913572 -0.0073794812 0)
(1.9913242 -0.0071594693 -1.0797898e-21)
(1.9936314 -0.021985825 4.1453105e-22)
(1.9931393 -0.02143447 4.3243518e-24)
(1.9926675 -0.020854151 -4.4561141e-22)
(1.9922182 -0.020250975 0)
(1.9917933 -0.019630747 4.9016652e-22)
(1.991394 -0.018999238 -5.0896543e-22)
(1.991021 -0.018361911 0)
(1.9906745 -0.017723869 5.6142354e-22)
(1.9903544 -0.017089767 2.8234944e-24)
(1.9900599 -0.016463762 -1.22999e-21)
(1.9897904 -0.015849515 -2.3705311e-24)
(1.9895447 -0.015250162 6.748492e-22)
(1.9893216 -0.014668151 7.0942133e-22)
(1.9891196 -0.014105432 -7.4136182e-22)
(1.9889373 -0.013563982 0)
(1.9887733 -0.013044959 0)
(1.988626 -0.012548719 0)
(1.988494 -0.012076086 -8.8658514e-22)
(1.9883759 -0.011627491 9.2246368e-22)
(1.9882703 -0.011202455 0)
(1.9881759 -0.01080047 0)
(1.9880917 -0.010421115 1.0287899e-21)
(1.9880165 -0.010064151 2.859302e-25)
(1.9879495 -0.0097289627 -2.1793424e-21)
(1.9878897 -0.0094143889 1.115513e-21)
(1.9878365 -0.0091194027 0)
(1.9877892 -0.0088427083 1.1604651e-21)
(1.991652 -0.026200932 -4.3807546e-22)
(1.990973 -0.025549104 0)
(1.9903209 -0.024858484 4.8306959e-22)
(1.989699 -0.024136609 -4.9979797e-22)
(1.98911 -0.023390692 0)
(1.9885558 -0.022627983 0)
(1.9880377 -0.021855398 0)
(1.987556 -0.021079455 0)
(1.9871107 -0.020306135 -6.3652826e-22)
(1.986701 -0.019540824 1.3317421e-21)
(1.986326 -0.018788255 -6.9705587e-22)
(1.9859841 -0.018052512 0)
(1.9856738 -0.017337037 0)
(1.9853929 -0.016644671 0)
(1.9851397 -0.015977283 0)
(1.9849119 -0.01533648 0)
(1.9847076 -0.014723978 -9.2396976e-22)
(1.9845247 -0.014140166 9.6262272e-22)
(1.9843612 -0.013584878 0)
(1.9842152 -0.013058601 0)
(1.9840849 -0.012561344 0)
(1.9839689 -0.012092166 -1.1193979e-21)
(1.9838655 -0.011650067 1.1535511e-21)
(1.9837734 -0.011234353 1.1859631e-21)
(1.9836916 -0.010844248 -2.4280729e-21)
(1.983619 -0.010478759 1.2379645e-21)
(1.9835545 -0.010136523 0)
(1.9894323 -0.030410144 -4.7847542e-22)
(1.9885275 -0.02965591 9.9316785e-22)
(1.9876565 -0.028850381 -5.1632651e-22)
(1.9868241 -0.028002652 0)
(1.9860345 -0.027121502 0)
(1.9852904 -0.02621588 0)
(1.9845937 -0.025294412 0)
(1.9839454 -0.024365302 0)
(1.9833456 -0.023436154 0)
(1.9827935 -0.022513864 0)
(1.9822879 -0.02160455 0)
(1.9818269 -0.020713515 0)
(1.9814084 -0.019845247 0)
(1.98103 -0.019003458 0)
(1.9806888 -0.01819113 9.2813369e-22)
(1.9803823 -0.017410538 -9.6879999e-22)
(1.9801075 -0.016662791 0)
(1.9798616 -0.015949107 -1.0601965e-21)
(1.9796421 -0.015270736 1.1027431e-21)
(1.9794463 -0.014627187 0)
(1.979272 -0.01401778 0)
(1.9791168 -0.013442598 0)
(1.978979 -0.012901184 0)
(1.9788567 -0.012392137 0)
(1.9787482 -0.011914085 1.3373782e-21)
(1.9786521 -0.011465831 -1.3635478e-21)
(1.9785671 -0.011045975 -1.3919355e-21)
(1.9870186 -0.034691077 0)
(1.9858455 -0.033840833 0)
(1.9847128 -0.032923396 5.7015504e-22)
(1.9836277 -0.031949475 8.3661588e-24)
(1.9825959 -0.030929538 -6.2007557e-22)
(1.9816216 -0.029874433 -6.5991401e-22)
(1.9807078 -0.028794758 6.8614581e-22)
(1.9798561 -0.027700712 0)
(1.9790672 -0.026601853 0)
(1.9783404 -0.025506939 0)
(1.9776743 -0.02442382 0)
(1.9770668 -0.023359367 -8.9032631e-22)
(1.9765151 -0.022319456 9.3007755e-22)
(1.9760162 -0.02130897 0)
(1.9755666 -0.020331862 0)
(1.9751628 -0.019391238 0)
(1.974801 -0.018489422 0)
(1.9744776 -0.017627828 0)
(1.9741891 -0.016806867 0)
(1.9739321 -0.016027362 -1.2770229e-21)
(1.9737036 -0.015289746 -2.1574373e-24)
(1.9735008 -0.014592754 -1.8664815e-24)
(1.9733209 -0.013935228 2.827056e-21)
(1.9731615 -0.013316825 -2.9066698e-21)
(1.9730207 -0.012736571 -1.1072758e-24)
(1.9728964 -0.012192491 1.5184989e-21)
(1.9727868 -0.011682678 -1.5508204e-21)
(1.9844836 -0.039186344 -2.7720905e-22)
(1.9829965 -0.038255826 0)
(1.9815556 -0.037238091 0)
(1.9801708 -0.036145412 0)
(1.97885 -0.034989983 0)
(1.9775995 -0.033784717 0)
(1.976424 -0.032542432 0)
(1.9753262 -0.031275652 0)
(1.9743075 -0.029996262 4.254534e-22)
(1.9733676 -0.028715295 4.2048438e-24)
(1.9725053 -0.027442751 -4.6768675e-22)
(1.9717181 -0.02618749 0)
(1.9710028 -0.024957179 0)
(1.9703557 -0.023758282 5.4831592e-22)
(1.9697724 -0.022596096 -1.1481199e-21)
(1.9692485 -0.021474809 -2.6963375e-24)
(1.9687793 -0.020397615 6.2917066e-22)
(1.9683602 -0.019366841 0)
(1.9679866 -0.018384004 -6.8850753e-22)
(1.9676543 -0.01744948 7.1476208e-22)
(1.9673592 -0.016563082 0)
(1.9670977 -0.015725231 0)
(1.9668663 -0.014935326 0)
(1.9666619 -0.014191366 -8.1728161e-22)
(1.9664816 -0.013491843 8.3655174e-22)
(1.9663228 -0.01283583 0)
(1.9661832 -0.012221508 -8.7261175e-22)
(1.9819196 -0.044065034 0)
(1.9800707 -0.043079658 3.2597527e-22)
(1.9782717 -0.041982272 -3.3660229e-22)
(1.9765357 -0.040786517 0)
(1.974874 -0.039506234 0)
(1.9732955 -0.038156482 4.03881e-22)
(1.9718072 -0.036752505 -4.1993038e-22)
(1.9704137 -0.035309466 -4.500531e-22)
(1.9691174 -0.033841985 9.4403054e-22)
(1.9679192 -0.032363825 5.6314993e-24)
(1.9668179 -0.030887633 -5.2309171e-22)
(1.9658112 -0.029424764 0)
(1.9648955 -0.027985174 -5.8641499e-22)
(1.9640662 -0.026577381 6.1254623e-22)
(1.9633185 -0.025208476 0)
(1.9626465 -0.023884185 0)
(1.9620448 -0.022608952 0)
(1.9615073 -0.021386064 0)
(1.9610286 -0.020217798 -7.7832033e-22)
(1.9606032 -0.019105586 1.6185969e-21)
(1.9602259 -0.01805002 -8.3971379e-22)
(1.959892 -0.017050302 0)
(1.959597 -0.016105889 -9.0050385e-22)
(1.959337 -0.015216737 9.2504617e-22)
(1.9591082 -0.014380929 0)
(1.9589071 -0.013595783 0)
(1.9587307 -0.012859256 0)
(1.9794315 -0.04947929 0)
(1.977172 -0.048474435 0)
(1.9749626 -0.04732763 0)
(1.9728207 -0.046053453 4.0106375e-22)
(1.9707614 -0.04466714 -4.1571534e-22)
(1.9687975 -0.043185833 0)
(1.9669389 -0.041627311 0)
(1.965193 -0.04000964 0)
(1.9635642 -0.03835056 0)
(1.9620545 -0.036667052 0)
(1.9606639 -0.03497496 5.9492956e-22)
(1.9593902 -0.033288716 -6.2132921e-22)
(1.9582298 -0.031621159 0)
(1.9571776 -0.029983437 0)
(1.9562277 -0.028384987 0)
(1.9553736 -0.026833573 0)
(1.9546083 -0.025335371 0)
(1.9539247 -0.023895093 0)
(1.9533159 -0.022516121 0)
(1.9527752 -0.021200679 0)
(1.952296 -0.019950054 0)
(1.9518724 -0.018764686 0)
(1.9514987 -0.017643912 0)
(1.9511696 -0.016586104 0)
(1.9508805 -0.015590772 0)
(1.950627 -0.014656308 0)
(1.9504051 -0.013779318 0)
(1.9771293 -0.055530471 0)
(1.974412 -0.054551898 1.9692807e-22)
(1.9717398 -0.05339621 -2.0336619e-22)
(1.9691351 -0.052078292 2.2208128e-22)
(1.9666183 -0.050614252 -2.3020399e-22)
(1.9642068 -0.049023043 0)
(1.9619148 -0.047324917 -2.6598423e-22)