/*--------------------------------*- C++ -*----------------------------------*\
  =========                 |
  \\      /  F ield         | OpenFOAM: The Open Source CFD Toolbox
   \\    /   O peration     | Website:  https://openfoam.org
    \\  /    A nd           | Version:  8
     \\/     M anipulation  |
\*---------------------------------------------------------------------------*/
FoamFile
{
    version     2.0;
    format      ascii;
    class       volScalarField::Internal;
    location    "10";
    object      V0;
}
// * * * * * * * * * * * * * * * * * * * * * * * * * * * * * * * * * * * * * //

dimensions      [0 3 0 0 0 0 0];

value           nonuniform List<scalar> 
18474
(
0.00064169479
0.00063716765
0.00062853123
0.00061600816
0.0005999132
0.00058063678
0.00055862567
0.0005343622
0.00050834365
0.00048106321
0.00045299336
0.00042457395
0.00039632035
0.00036848124
0.00034126072
0.00031491243
0.00028963537
0.00026557771
0.00024284166
0.00022148933
0.0002015486
0.00018301909
0.00016587766
0.00063716766
0.00063267245
0.00062409696
0.00061166224
0.00059568083
0.0005765404
0.00055468458
0.00053059229
0.0005047573
0.00047777313
0.00045025294
0.00042228314
0.00039437633
0.00036680314
0.00033978728
0.00031359813
0.00028844736
0.00026449274
0.00024184361
0.00022056709
0.00020069447
0.0001822276
0.00016514471
0.00062853123
0.00062409696
0.0006156377
0.00060337152
0.00058760673
0.00056872575
0.00054716617
0.00052348661
0.00049853868
0.00047237016
0.00044551391
0.00041808248
0.00039049214
0.00036313041
0.00033632624
0.00031034852
0.00028540777
0.00026166036
0.00023921408
0.00021813454
0.00019845172
0.00018016636
0.00016325584
0.00061600817
0.00061166224
0.00060337153
0.00059134975
0.00057589906
0.00055739426
0.00053661841
0.00051417984
0.00049028783
0.00046490434
0.00043844257
0.00041138473
0.00038417044
0.00035718574
0.00033075736
0.00030515152
0.00028057589
0.00025718409
0.00023508141
0.00021433136
0.00019496225
0.00017697361
0.00016034205
0.0005999132
0.00059568083
0.00058760673
0.00057589906
0.00056085206
0.00054337869
0.00052409654
0.00050286767
0.00047956272
0.00045468585
0.00042874336
0.00040221469
0.00037553576
0.00034908817
0.00032319392
0.0002981144
0.00027405282
0.00025115877
0.0002295342
0.00020923996
0.00019030243
0.00017271987
0.00015646823
0.00058063679
0.00057654041
0.00056872575
0.00055739427
0.00054336109
0.00052759105
0.00050948144
0.00048883639
0.00046614067
0.00044190083
0.00041661792
0.00039076518
0.00036477156
0.00033901144
0.00031379961
0.00028939071
0.00026598193
0.00024371774
0.00022269596
0.00020297435
0.00018457714
0.00016750132
0.00015172234
0.00055862568
0.00055468459
0.00054716617
0.00053658542
0.00052434776
0.00050975574
0.00049226063
0.00047228429
0.00045030509
0.00042682194
0.00040232717
0.00037728446
0.00035211285
0.00032717679
0.0003027817
0.00027917374
0.0002565427
0.00023502698
0.00021471965
0.000195675
0.00017791501
0.00016143543
0.0001462114
0.0005343622
0.00053059229
0.0005234737
0.00051448766
0.00050359009
0.00048960312
0.00047278647
0.00045356005
0.00043239267
0.00040977232
0.00038617936
0.00036206487
0.00033783523
0.00031384269
0.00029038139
0.00026768748
0.00024594229
0.00022527735
0.0002057805
0.00018750232
0.00017046243
0.00015465549
0.00014005649
0.00050834366
0.00050475731
0.00049855896
0.0004911784
0.00048089338
0.00046754232
0.00045145855
0.00043305139
0.00041277718
0.00039110995
0.00036851514
0.00034542856
0.00032224158
0.00029929233
0.0002768621
0.00025517588
0.00023440564
0.00021467551
0.00019606774
0.00017862903
0.0001623767
0.00014730437
0.00013338713
0.00048106322
0.0004777477
0.00047302333
0.00046643269
0.0004566909
0.00044400511
0.00042869827
0.00041116671
0.00039185166
0.00037121051
0.00034969122
0.0003277121
0.00030564762
0.00028382021
0.00026249718
0.00024189147
0.00022216513
0.00020343448
0.000185776
0.00016923249
0.00015381898
0.00013952823
0.00012633558
0.00045299337
0.0004502689
0.00044678129
0.00044061626
0.00043142581
0.00041942671
0.00040492987
0.00038831653
0.00037001052
0.00035045029
0.00033006425
0.00030925137
0.00028836778
0.00026771913
0.0002475579
0.00022808445
0.00020945057
0.0001917646
0.00017509719
0.00015948728
0.00014494772
0.00013147054
0.00011903152
0.00042457349
0.00042279108
0.00041992838
0.00041416311
0.00040552726
0.00039422815
0.00038056321
0.00036489685
0.00034763354
0.00032919097
0.00030997636
0.00029036805
0.00027070276
0.00025126864
0.0002323029
0.00021399305
0.00019648052
0.00017986566
0.00016421338
0.00014955886
0.00013591292
0.00012326701
0.00011159752
0.00039627428
0.00039542296
0.00039285302
0.00038747832
0.00037939548
0.00036880162
0.00035597952
0.00034127531
0.00032507266
0.00030776712
0.00028974355
0.00027135873
0.00025292939
0.00023472579
0.00021696972
0.00019983584
0.0001834553
0.00016792063
0.00015329118
0.00013959853
0.00012685166
0.00011504157
0.00010414539
0.00036850904
0.00036828411
0.00036592169
0.00036092681
0.00035339065
0.00034349955
0.00033152076
0.00031778111
0.00030264243
0.00028647718
0.00026964717
0.00025248708
0.00023529342
0.0002183185
0.00020176878
0.00018580626
0.0001705521
0.00015609126
0.00014247778
0.0001297399
0.0001178849
0.00010690352
9.6773753e-05
0.00034151622
0.00034162218
0.0003394533
0.00033482591
0.0003278256
0.00031862757
0.00030748297
0.00029469867
0.00028061404
0.00026557796
0.00024992884
0.00023397917
0.00021800525
0.00020224166
0.00018687981
0.00017206944
0.00015792205
0.00014451544
0.00013189863
0.00012009677
0.00010911568
9.894597e-05
8.9566555e-05
0.00031545401
0.00031570365
0.00031371544
0.00030944165
0.00030296229
0.00029444122
0.00028411317
0.00027226478
0.00025921276
0.00024528229
0.00023078841
0.0002160216
0.00020123825
0.00018665562
0.00017245054
0.00015876096
0.0001456892
0.00013330629
0.00012165661
0.00011076249
0.0001006285
9.1245235e-05
8.2592632e-05
0.00029046161
0.00029074331
0.00028892372
0.00028498827
0.00027901142
0.00027114561
0.00026160922
0.00025066869
0.00023861814
0.00022575936
0.00021238432
0.00019876195
0.00018512926
0.00017168672
0.0001585972
0.00014598739
0.00013395097
0.00012255263
0.00011183247
0.00010181032
9.2489655e-05
8.3861213e-05
7.5905999e-05
0.00026665331
0.0002669061
0.00026524374
0.0002616302
0.00025613443
0.00024889766
0.00024012211
0.00023005435
0.00021896639
0.00020713707
0.00019483597
0.0001823111
0.00016978076
0.00015742937
0.00014540644
0.00013382805
0.00012277976
0.0001123204
0.00010248616
9.3294603e-05
8.4748351e-05
7.6838364e-05
6.954676e-05
0.00024411539
0.00024431081
0.00024279482
0.00023948582
0.00023444742
0.00022780993
0.00021975981
0.00021052434
0.00020035409
0.00018950574
0.00017822725
0.00016674657
0.00015526413
0.00014394902
0.00013293815
0.00012233762
0.00011222539
0.00010265491
9.3658798e-05
8.5252635e-05
7.7438333e-05
7.0207178e-05
6.354242e-05
0.0002229056
0.00022303492
0.00022165489
0.00021863245
0.00021402608
0.00020795553
0.00020059212
0.00019214458
0.0001828429
0.00017292256
0.00016261089
0.00015211671
0.00014162348
0.00013128585
0.00012122886
0.00011154924
0.00010231794
9.3583414e-05
8.5375081e-05
7.7706759e-05
7.0579804e-05
6.3985902e-05
5.7909446e-05
0.00020305446
0.00020312012
0.00020186606
0.00019911188
0.00019491115
0.00018937357
0.00018265601
0.00017494954
0.00016646457
0.00015741647
0.00014801302
0.00013844499
0.00012887984
0.00011945862
0.00011029528
0.00010147783
9.3070738e-05
8.5117872e-05
7.7645744e-05
7.0666631e-05
6.4181464e-05
5.8182381e-05
5.2654909e-05
0.00018456792
0.00018457795
0.00018344028
0.00018093602
0.00017711409
0.00017207468
0.000165961
0.00015894742
0.00015122592
0.0001429929
0.00013443778
0.00012573434
0.00011703509
0.00010846839
0.00010013782
9.2123332e-05
8.4483381e-05
7.7257663e-05
7.0470053e-05
6.4131477e-05
5.8242544e-05
5.2795882e-05
4.777813e-05
0.00016743068
0.00016739531
0.00016636488
0.00016409242
0.00016062248
0.00015604631
0.0001504943
0.00014412518
0.00013711365
0.00012963837
0.00012187157
0.00011397122
0.00010607589
9.8302109e-05
9.0743891e-05
8.3473717e-05
7.6544512e-05
6.9992154e-05
6.383814e-05
5.8092205e-05
5.2754722e-05
4.7818828e-05
4.327224e-05
0.00016587072
0.0001605263
0.00015495005
0.00014919219
0.00014330133
0.00013732385
0.00013130334
0.00012528014
0.00011929108
0.00011336927
0.00010754399
0.00010184072
9.6281204e-05
9.0883583e-05
8.5662597e-05
8.0629811e-05
7.5793864e-05
7.1160739e-05
6.6734036e-05
6.2515252e-05
5.8504039e-05
5.4698467e-05
5.109526e-05
4.7690021e-05
4.4477438e-05
4.1451467e-05
3.8605499e-05
0.00016512085
0.00015978261
0.00015421386
0.000148465
0.00014258479
0.00013661969
0.00013061327
0.00012460584
0.00011863411
0.00011273105
0.00010692578
0.00010124359
9.570602e-05
9.0331007e-05
8.5133093e-05
8.0123649e-05
7.5311135e-05
7.0701367e-05
6.6297798e-05
6.210179e-05
5.8112884e-05
5.4329051e-05
5.0746938e-05
4.7362085e-05
4.4169128e-05
4.1161989e-05
3.8334035e-05
0.00016321206
0.00015791602
0.00015239386
0.0001466955
0.00014086919
0.00013496084
0.00012901349
0.00012306692
0.00011715733
0.0001113172
0.00010557518
9.9956155e-05
9.448127e-05
8.916813e-05
8.403097e-05
7.9080904e-05
7.4326172e-05
6.977241e-05
6.5422925e-05
6.127897e-05
5.7340005e-05
5.360395e-05
5.0067421e-05
4.6725952e-05
4.3574192e-05
4.060609e-05
3.7815055e-05
0.0001602791
0.000155059
0.00014961863
0.00014400708
0.00013827176
0.00013245773
0.00012660723
0.00012075924
0.00011494923
0.00010920897
0.00010356649
9.8046076e-05
9.2668374e-05
8.7450535e-05
8.2406409e-05
7.7546785e-05
7.2879637e-05
6.841039e-05
6.4142191e-05
6.0076178e-05
5.6211738e-05
5.2546755e-05
4.9077842e-05
4.5800558e-05
4.27096e-05
3.9798984e-05
3.7062204e-05
0.00015638778
0.00015127618
0.00014595141
0.00014046143
0.00013485249
0.00012916857
0.00012345079
0.00011773713
0.00011206208
0.00010645655
0.00010094776
9.5559269e-05
9.0311104e-05
8.521987e-05
8.0298958e-05
7.5558778e-05
7.1007e-05
6.6648813e-05
6.2487196e-05
5.8523173e-05
5.475607e-05
5.1183756e-05
4.7802867e-05
4.4609016e-05
4.1596987e-05
3.8760905e-05
3.6094388e-05
0.00015162682
0.00014665413
0.00014147645
0.00013614031
0.00013069056
0.00012516976
0.00011961775
0.00011407125
0.00010856362
0.0001031247
9.7780763e-05
9.2554555e-05
8.7465356e-05
8.2529154e-05
7.7758819e-05
7.3164338e-05
6.8753048e-05
6.4529888e-05
6.0497663e-05
5.6657292e-05
5.3008052e-05
4.9547817e-05
4.6273275e-05
4.3180128e-05
4.0263279e-05
3.7517e-05
3.4935076e-05
0.00014610376
0.00014129743
0.00013629517
0.00013114181
0.00012588053
0.00012055231
0.00011519545
0.00010984526
0.00010453376
9.9289618e-05
9.413804e-05
8.9100823e-05
8.4196444e-05
7.9440204e-05
7.4844403e-05
7.0418575e-05
6.6169701e-05
6.2102463e-05
5.8219492e-05
5.4521609e-05
5.1008062e-05
4.7676752e-05
4.4524443e-05
4.1546957e-05
3.8739352e-05
3.6096079e-05
3.361113e-05
0.00013993993
0.00013532373
0.00013052134
0.00012557566
0.00012052801
0.00011541757
0.00011028096
0.00010515188
0.00010006092
9.5035444e-05
9.0099482e-05
8.5273816e-05
8.057605e-05
7.6020748e-05
7.1619609e-05
6.7381684e-05
6.3313591e-05
5.9419748e-05
5.5702618e-05
5.2162936e-05
4.8799936e-05
4.5611568e-05
4.2594698e-05
3.9745296e-05
3.7058601e-05
3.4529281e-05
3.2151562e-05
0.00013326484
0.00012885837
0.00012427592
0.0001195583
0.0001147448
0.00010987265
0.00010497663
0.00010008875
9.5238045e-05
9.0450463e-05
8.5748809e-05
8.1152784e-05
7.667907e-05
7.2341459e-05
6.8151025e-05
6.4116322e-05
6.0243597e-05
5.6537007e-05
5.2998853e-05
4.9629796e-05
4.6429072e-05
4.33947e-05
4.0523671e-05
3.7812125e-05
3.5255511e-05
3.2848737e-05
3.0586292e-05
0.00012621054
0.00012202892
0.00011768184
0.00011320788
0.00010864418
0.0001040259
9.9385892e-05
9.4754372e-05
9.0158745e-05
8.5623498e-05
8.1170143e-05
7.6817262e-05
7.2580583e-05
6.8473106e-05
6.4505262e-05
6.0685105e-05
5.7018508e-05
5.3509371e-05
5.0159842e-05
4.6970518e-05
4.3940655e-05
4.1068356e-05
3.8350755e-05
3.5784184e-05
3.3364322e-05
3.1086336e-05
2.8945e-05
0.00011890635
0.00011496018
0.00011085919
0.00010663968
0.00010233654
9.7982795e-05
9.360929e-05
8.9244403e-05
8.4913858e-05
8.0640639e-05
7.6444936e-05
7.2344187e-05
6.8353151e-05
6.4484024e-05
6.074659e-05
5.7148402e-05
5.369496e-05
5.0389915e-05
4.723527e-05
4.4231572e-05
4.1378105e-05
3.8673072e-05
3.6113766e-05
3.3696723e-05
3.1417868e-05
2.9272645e-05
2.7256127e-05
0.00011147438
0.00010776983
0.00010392115
9.9962244e-05
9.5925721e-05
9.1842448e-05
8.7741235e-05
8.3648584e-05
7.958852e-05
7.5582509e-05
7.1649407e-05
6.7805501e-05
6.4064576e-05
6.0438024e-05
5.6934984e-05
5.356251e-05
5.032574e-05
4.7228081e-05
4.4271399e-05
4.1456201e-05
3.878181e-05
3.624654e-05
3.3847849e-05
3.1582492e-05
2.9446647e-05
2.7436044e-05
2.5546067e-05
0.00010402594
0.00010056516
9.6970772e-05
9.327433e-05
8.9506156e-05
8.5694943e-05
8.1867467e-05
7.8048362e-05
7.4259953e-05
7.0522192e-05
6.6852608e-05
6.3266342e-05
5.9776213e-05
5.6392817e-05
5.3124658e-05
4.9978298e-05
4.6958521e-05
4.40685e-05
4.1309973e-05
3.8683412e-05
3.6188189e-05
3.3822731e-05
3.1584673e-05
2.947099e-05
2.7478121e-05
2.5602086e-05
2.3838582e-05
9.6659179e-05
9.3440649e-05
9.0098808e-05
8.6662877e-05
8.3160919e-05
7.9619485e-05
7.6063345e-05
7.2515285e-05
6.899596e-05
6.5523829e-05
6.2115111e-05
5.8783825e-05
5.5541838e-05
5.2398967e-05
4.9363092e-05
4.6440299e-05
4.3635026e-05
4.0950221e-05
3.8387501e-05
3.5947311e-05
3.3629072e-05
3.1431334e-05
2.9351906e-05
2.7387986e-05
2.5536273e-05
2.3793078e-05
2.2154409e-05
8.9457623e-05
8.6476717e-05
8.3382469e-05
8.0201825e-05
7.6960648e-05
7.3683402e-05
7.03929e-05
6.7110131e-05
6.3854118e-05
6.0641865e-05
5.7488319e-05
5.4406401e-05
5.1407055e-05
4.8499339e-05
4.5690528e-05
4.2986245e-05
4.0390596e-05
3.7906311e-05
3.5534894e-05
3.3276765e-05
3.1131401e-05
2.9097469e-05
2.7172954e-05
2.5355273e-05
2.3641386e-05
2.2027884e-05
2.0511084e-05
8.2489751e-05
7.9739285e-05
7.688504e-05
7.3951772e-05
7.0963226e-05
6.7941853e-05
6.4908584e-05
6.1882671e-05
5.8881566e-05
5.592087e-05
5.3014298e-05
5.0173713e-05
4.7409169e-05
4.472899e-05
4.2139868e-05
3.9646981e-05
3.7254115e-05
3.4963791e-05
3.2777405e-05
3.0695356e-05
2.8717175e-05
2.6841646e-05
2.5066925e-05
2.3390645e-05
2.1810012e-05
2.0321897e-05
1.8922915e-05
7.5809306e-05
7.3280092e-05
7.0656195e-05
6.7960282e-05
6.5214085e-05
6.2438132e-05
5.9651561e-05
5.6871966e-05
5.4115296e-05
5.1395809e-05
4.8726045e-05
4.6116852e-05
4.357743e-05
4.1115403e-05
3.8736903e-05
3.6446681e-05
3.4248215e-05
3.2143829e-05
3.0134815e-05
2.8221552e-05
2.6403623e-05
2.4679925e-05
2.304878e-05
2.1508026e-05
2.0055109e-05
1.8687166e-05
1.7401097e-05
6.9456198e-05
6.7137568e-05
6.4732836e-05
6.2262701e-05
5.9746989e-05
5.720442e-05
5.465243e-05
5.2107048e-05
4.9582799e-05
4.7092669e-05
4.464808e-05
4.2258918e-05
3.993357e-05
3.7678992e-05
3.5500785e-05
3.3403291e-05
3.1389698e-05
2.9462137e-05
2.7621803e-05
2.5869056e-05
2.4203526e-05
2.262422e-05
2.1129614e-05
1.9717744e-05
1.8386283e-05
1.7132622e-05
1.5953931e-05
6.3457807e-05
6.1338088e-05
5.9140301e-05
5.6883302e-05
5.4585137e-05
5.2262828e-05
4.9932221e-05
4.7607874e-05
4.5302974e-05
4.3029311e-05
4.0797256e-05
3.8615784e-05
3.6492518e-05
3.443378e-05
3.2444667e-05
3.0529137e-05
2.8690096e-05
2.6929499e-05
2.5248442e-05
2.3647267e-05
2.212565e-05
2.0682698e-05
1.9317034e-05
1.8026878e-05
1.6810118e-05
1.5664384e-05
1.4587103e-05
5.7830529e-05
5.5897453e-05
5.3893777e-05
5.1836646e-05
4.974245e-05
4.7626634e-05
4.5503566e-05
4.3386432e-05
4.1287176e-05
3.9216469e-05
3.7183697e-05
3.5196986e-05
3.3263238e-05
3.1388182e-05
2.9576441e-05
2.7831606e-05
2.6156324e-05
2.4552374e-05
2.3020763e-05
2.1561812e-05
2.017524e-05
1.8860244e-05
1.7615586e-05
1.6439657e-05
1.5330547e-05
1.4286108e-05
1.3304007e-05
5.2581405e-05
5.0822455e-05
4.8999801e-05
4.7129008e-05
4.5224937e-05
4.3301577e-05
4.1371929e-05
3.9447914e-05
3.7540321e-05
3.5658787e-05
3.3811783e-05
3.2006645e-05
3.0249602e-05
2.8545829e-05
2.6899504e-05
2.5313878e-05
2.3791347e-05
2.233353e-05
2.0941347e-05
1.9615096e-05
1.8354532e-05
1.715894e-05
1.6027206e-05
1.495788e-05
1.3949239e-05
1.2999342e-05
1.210608e-05
4.7709757e-05
4.6112441e-05
4.4457754e-05
4.2759806e-05
4.1032052e-05
3.9287146e-05
3.7536831e-05
3.5791867e-05
3.4061983e-05
3.235586e-05
3.0681127e-05
2.9044388e-05
2.7451251e-05
2.5906375e-05
2.4413525e-05
2.2975632e-05
2.159486e-05
2.0272674e-05
1.9009911e-05
1.7806847e-05
1.6663269e-05
1.557854e-05
1.4551658e-05
1.3581323e-05
1.2665983e-05
1.1803889e-05
1.0993136e-05
4.3208725e-05
4.1760796e-05
4.0261281e-05
3.8722954e-05
3.7157986e-05
3.5577806e-05
3.3993012e-05
3.2413302e-05
3.0847433e-05
2.9303214e-05
2.7787501e-05
2.6306224e-05
2.4864421e-05
2.3466275e-05
2.2115166e-05
2.081373e-05
1.9563915e-05
1.836704e-05
1.7223863e-05
1.6134638e-05
1.5099179e-05
1.4116919e-05
1.3186961e-05
1.2308137e-05
1.1479054e-05
1.0698138e-05
9.9636747e-06
3.7847957e-05
3.7847957e-05
3.7847957e-05
3.7847957e-05
3.7847957e-05
3.7847957e-05
3.7847957e-05
3.7847957e-05
3.7847957e-05
3.7847957e-05
3.7847957e-05
3.7847957e-05
3.7847957e-05
3.7847957e-05
3.7847957e-05
3.7847957e-05
3.7847957e-05
3.7847957e-05
3.7847957e-05
3.7847957e-05
3.7847957e-05
3.7847957e-05
3.7847957e-05
3.7847957e-05
3.7847957e-05
3.7847957e-05
3.7847957e-05
3.7847957e-05
3.7847957e-05
3.7847957e-05
3.7847957e-05
3.7847957e-05
3.7847957e-05
3.7847957e-05
3.758094e-05
3.7580941e-05
3.7580941e-05
3.7580941e-05
3.7580941e-05
3.7580941e-05
3.7580941e-05
3.7580941e-05
3.7580941e-05
3.7580941e-05
3.7580941e-05
3.7580941e-05
3.7580941e-05
3.7580941e-05
3.7580941e-05
3.7580941e-05
3.7580941e-05
3.7580941e-05
3.7580941e-05
3.7580941e-05
3.7580941e-05
3.7580941e-05
3.7580941e-05
3.7580941e-05
3.7580941e-05
3.7580941e-05
3.7580941e-05
3.7580941e-05
3.7580941e-05
3.7580941e-05
3.7580941e-05
3.7580941e-05
3.7580941e-05
3.7580942e-05
3.7071552e-05
3.7071554e-05
3.7071554e-05
3.7071554e-05
3.7071554e-05
3.7071554e-05
3.7071554e-05
3.7071554e-05
3.7071554e-05
3.7071554e-05
3.7071554e-05
3.7071554e-05
3.7071554e-05
3.7071554e-05
3.7071554e-05
3.7071554e-05
3.7071554e-05
3.7071554e-05
3.7071554e-05
3.7071554e-05
3.7071554e-05
3.7071554e-05
3.7071554e-05
3.7071554e-05
3.7071554e-05
3.7071554e-05
3.7071554e-05
3.7071554e-05
3.7071554e-05
3.7071554e-05
3.7071554e-05
3.7071554e-05
3.7071554e-05
3.7071555e-05
3.6332926e-05
3.6332928e-05
3.6332928e-05
3.6332928e-05
3.6332928e-05
3.6332928e-05
3.6332928e-05
3.6332928e-05
3.6332928e-05
3.6332928e-05
3.6332928e-05
3.6332928e-05
3.6332928e-05
3.6332928e-05
3.6332928e-05
3.6332928e-05
3.6332928e-05
3.6332928e-05
3.6332928e-05
3.6332928e-05
3.6332928e-05
3.6332928e-05
3.6332928e-05
3.6332928e-05
3.6332928e-05
3.6332928e-05
3.6332928e-05
3.6332928e-05
3.6332928e-05
3.6332928e-05
3.6332928e-05
3.6332928e-05
3.6332928e-05
3.633293e-05
3.5383625e-05
3.5383627e-05
3.5383627e-05
3.5383627e-05
3.5383627e-05
3.5383627e-05
3.5383627e-05
3.5383627e-05
3.5383627e-05
3.5383627e-05
3.5383627e-05
3.5383627e-05
3.5383627e-05
3.5383627e-05
3.5383627e-05
3.5383627e-05
3.5383627e-05
3.5383627e-05
3.5383627e-05
3.5383627e-05
3.5383627e-05
3.5383627e-05
3.5383627e-05
3.5383627e-05
3.5383627e-05
3.5383627e-05
3.5383627e-05
3.5383627e-05
3.5383627e-05
3.5383627e-05
3.5383627e-05
3.5383627e-05
3.5383627e-05
3.5383629e-05
3.4246678e-05
3.424668e-05
3.424668e-05
3.424668e-05
3.424668e-05
3.424668e-05
3.424668e-05
3.424668e-05
3.424668e-05
3.424668e-05
3.424668e-05
3.424668e-05
3.424668e-05
3.424668e-05
3.424668e-05
3.424668e-05
3.424668e-05
3.424668e-05
3.424668e-05
3.424668e-05
3.424668e-05
3.424668e-05
3.424668e-05
3.424668e-05
3.424668e-05
3.424668e-05
3.424668e-05
3.424668e-05
3.424668e-05
3.424668e-05
3.424668e-05
3.424668e-05
3.424668e-05
3.4246682e-05
3.2948435e-05
3.2948438e-05
3.2948437e-05
3.2948438e-05
3.2948438e-05
3.2948437e-05
3.2948438e-05
3.2948438e-05
3.2948438e-05
3.2948437e-05
3.2948438e-05
3.2948438e-05
3.2948438e-05
3.2948438e-05
3.2948438e-05
3.2948438e-05
3.2948438e-05
3.2948438e-05
3.2948438e-05
3.2948438e-05
3.2948438e-05
3.2948438e-05
3.2948438e-05
3.2948438e-05
3.2948438e-05
3.2948438e-05
3.2948437e-05
3.2948438e-05
3.2948438e-05
3.2948438e-05
3.2948437e-05
3.2948438e-05
3.2948438e-05
3.294844e-05
3.1517345e-05
3.1517348e-05
3.1517347e-05
3.1517348e-05
3.1517348e-05
3.1517347e-05
3.1517348e-05
3.1517348e-05
3.1517348e-05
3.1517347e-05
3.1517348e-05
3.1517348e-05
3.1517347e-05
3.1517347e-05
3.1517348e-05
3.1517348e-05
3.1517348e-05
3.1517348e-05
3.1517347e-05
3.1517348e-05
3.1517347e-05
3.1517348e-05
3.1517348e-05
3.1517348e-05
3.1517348e-05
3.1517348e-05
3.1517347e-05
3.1517348e-05
3.1517348e-05
3.1517348e-05
3.1517347e-05
3.1517348e-05
3.1517348e-05
3.151735e-05
2.9982739e-05
2.9982741e-05
2.9982741e-05
2.9982741e-05
2.9982741e-05
2.9982741e-05
2.9982741e-05
2.9982741e-05
2.9982741e-05
2.9982741e-05
2.9982742e-05
2.9982741e-05
2.9982741e-05
2.9982741e-05
2.9982741e-05
2.9982741e-05
2.9982741e-05
2.9982741e-05
2.9982741e-05
2.9982741e-05
2.9982741e-05
2.9982741e-05
2.9982741e-05
2.9982741e-05
2.9982741e-05
2.9982741e-05
2.9982741e-05
2.9982741e-05
2.9982741e-05
2.9982741e-05
2.9982741e-05
2.9982741e-05
2.9982741e-05
2.9982743e-05
2.8373705e-05
2.8373707e-05
2.8373707e-05
2.8373707e-05
2.8373707e-05
2.8373707e-05
2.8373707e-05
2.8373707e-05
2.8373707e-05
2.8373707e-05
2.8373707e-05
2.8373707e-05
2.8373707e-05
2.8373707e-05
2.8373707e-05
2.8373707e-05
2.8373707e-05
2.8373707e-05
2.8373707e-05
2.8373707e-05
2.8373707e-05
2.8373707e-05
2.8373707e-05
2.8373707e-05
2.8373707e-05
2.8373707e-05
2.8373707e-05
2.8373707e-05
2.8373707e-05
2.8373707e-05
2.8373707e-05
2.8373707e-05
2.8373707e-05
2.8373709e-05
2.6718111e-05
2.6718112e-05
2.6718112e-05
2.6718112e-05
2.6718112e-05
2.6718112e-05
2.6718112e-05
2.6718112e-05
2.6718112e-05
2.6718112e-05
2.6718112e-05
2.6718112e-05
2.6718112e-05
2.6718112e-05
2.6718112e-05
2.6718112e-05
2.6718112e-05
2.6718112e-05
2.6718112e-05
2.6718112e-05
2.6718112e-05
2.6718112e-05
2.6718112e-05
2.6718112e-05
2.6718112e-05
2.6718112e-05
2.6718112e-05
2.6718112e-05
2.6718112e-05
2.6718112e-05
2.6718112e-05
2.6718112e-05
2.6718112e-05
2.6718114e-05
2.5041817e-05
2.5041819e-05
2.5041819e-05
2.5041819e-05
2.5041819e-05
2.5041819e-05
2.5041819e-05
2.5041819e-05
2.5041819e-05
2.5041819e-05
2.5041819e-05
2.5041819e-05
2.5041819e-05
2.5041819e-05
2.5041819e-05
2.5041819e-05
2.5041819e-05
2.5041819e-05
2.5041819e-05
2.5041819e-05
2.5041819e-05
2.5041819e-05
2.5041819e-05
2.5041819e-05
2.5041819e-05
2.5041819e-05
2.5041819e-05
2.5041819e-05
2.5041819e-05
2.5041819e-05
2.5041819e-05
2.5041819e-05
2.5041819e-05
2.504182e-05
2.33681e-05
2.3368102e-05
2.3368101e-05
2.3368102e-05
2.3368102e-05
2.3368101e-05
2.3368102e-05
2.3368102e-05
2.3368102e-05
2.3368101e-05
2.3368102e-05
2.3368101e-05
2.3368101e-05
2.3368101e-05
2.3368101e-05
2.3368101e-05
2.3368101e-05
2.3368101e-05
2.3368101e-05
2.3368101e-05
2.3368101e-05
2.3368101e-05
2.3368101e-05
2.3368101e-05
2.3368102e-05
2.3368102e-05
2.3368101e-05
2.3368102e-05
2.3368102e-05
2.3368102e-05
2.3368101e-05
2.3368102e-05
2.3368102e-05
2.3368103e-05
2.1717275e-05
2.1717276e-05
2.1717276e-05
2.1717276e-05
2.1717276e-05
2.1717276e-05
2.1717276e-05
2.1717276e-05
2.1717276e-05
2.1717276e-05
2.1717276e-05
2.1717276e-05
2.1717276e-05
2.1717276e-05
2.1717276e-05
2.1717276e-05
2.1717276e-05
2.1717276e-05
2.1717276e-05
2.1717276e-05
2.1717276e-05
2.1717276e-05
2.1717276e-05
2.1717276e-05
2.1717276e-05
2.1717276e-05
2.1717276e-05
2.1717276e-05
2.1717276e-05
2.1717276e-05
2.1717276e-05
2.1717276e-05
2.1717276e-05
2.1717277e-05
2.0106516e-05
2.0106517e-05
2.0106517e-05
2.0106517e-05
2.0106517e-05
2.0106517e-05
2.0106517e-05
2.0106517e-05
2.0106517e-05
2.0106517e-05
2.0106517e-05
2.0106517e-05
2.0106517e-05
2.0106517e-05
2.0106517e-05
2.0106517e-05
2.0106517e-05
2.0106517e-05
2.0106517e-05
2.0106517e-05
2.0106517e-05
2.0106517e-05
2.0106517e-05
2.0106517e-05
2.0106517e-05
2.0106517e-05
2.0106517e-05
2.0106517e-05
2.0106517e-05
2.0106517e-05
2.0106517e-05
2.0106517e-05
2.0106517e-05
2.0106518e-05
1.8549836e-05
1.8549837e-05
1.8549837e-05
1.8549837e-05
1.8549837e-05
1.8549837e-05
1.8549837e-05
1.8549837e-05
1.8549837e-05
1.8549837e-05
1.8549837e-05
1.8549837e-05
1.8549837e-05
1.8549837e-05
1.8549837e-05
1.8549837e-05
1.8549837e-05
1.8549837e-05
1.8549837e-05
1.8549837e-05
1.8549837e-05
1.8549837e-05
1.8549837e-05
1.8549837e-05
1.8549837e-05
1.8549837e-05
1.8549837e-05
1.8549837e-05
1.8549837e-05
1.8549837e-05
1.8549837e-05
1.8549837e-05
1.8549837e-05
1.8549837e-05
1.70582e-05
1.7058201e-05
1.7058201e-05
1.7058201e-05
1.7058201e-05
1.7058201e-05
1.7058201e-05
1.7058201e-05
1.7058201e-05
1.7058201e-05
1.7058201e-05
1.7058201e-05
1.7058201e-05
1.7058201e-05
1.7058201e-05
1.7058201e-05
1.7058201e-05
1.7058201e-05
1.7058201e-05
1.7058201e-05
1.7058201e-05
1.7058201e-05
1.7058201e-05
1.7058201e-05
1.7058201e-05
1.7058201e-05
1.7058201e-05
1.7058201e-05
1.7058201e-05
1.7058201e-05
1.7058201e-05
1.7058201e-05
1.7058201e-05
1.7058201e-05
1.5639738e-05
1.5639738e-05
1.5639738e-05
1.5639738e-05
1.5639738e-05
1.5639738e-05
1.5639738e-05
1.5639738e-05
1.5639738e-05
1.5639738e-05
1.5639738e-05
1.5639738e-05
1.5639738e-05
1.5639738e-05
1.5639738e-05
1.5639738e-05
1.5639738e-05
1.5639738e-05
1.5639738e-05
1.5639738e-05
1.5639738e-05
1.5639738e-05
1.5639738e-05
1.5639738e-05
1.5639738e-05
1.5639738e-05
1.5639738e-05
1.5639738e-05
1.5639738e-05
1.5639738e-05
1.5639738e-05
1.5639738e-05
1.5639738e-05
1.5639738e-05
1.4300016e-05
1.4300016e-05
1.4300016e-05
1.4300016e-05
1.4300016e-05
1.4300016e-05
1.4300016e-05
1.4300016e-05
1.4300016e-05
1.4300016e-05
1.4300016e-05
1.4300016e-05
1.4300016e-05
1.4300016e-05
1.4300016e-05
1.4300016e-05
1.4300016e-05
1.4300016e-05
1.4300016e-05
1.4300016e-05
1.4300016e-05
1.4300016e-05
1.4300016e-05
1.4300016e-05
1.4300016e-05
1.4300016e-05
1.4300016e-05
1.4300016e-05
1.4300016e-05
1.4300016e-05
1.4300016e-05
1.4300016e-05
1.4300016e-05
1.4300016e-05
1.3042358e-05
1.3042358e-05
1.3042358e-05
1.3042358e-05
1.3042358e-05
1.3042358e-05
1.3042358e-05
1.3042358e-05
1.3042358e-05
1.3042358e-05
1.3042358e-05
1.3042358e-05
1.3042358e-05
1.3042358e-05
1.3042358e-05
1.3042358e-05
1.3042358e-05
1.3042358e-05
1.3042358e-05
1.3042358e-05
1.3042358e-05
1.3042358e-05
1.3042358e-05
1.3042358e-05
1.3042358e-05
1.3042358e-05
1.3042358e-05
1.3042358e-05
1.3042358e-05
1.3042358e-05
1.3042358e-05
1.3042358e-05
1.3042358e-05
1.3042358e-05
1.1868171e-05
1.1868171e-05
1.1868171e-05
1.1868171e-05
1.1868171e-05
1.1868171e-05
1.1868171e-05
1.1868171e-05
1.1868171e-05
1.1868171e-05
1.1868171e-05
1.1868171e-05
1.1868171e-05
1.1868171e-05
1.1868171e-05
1.1868171e-05
1.1868171e-05
1.1868171e-05
1.1868171e-05
1.1868171e-05
1.1868171e-05
1.1868171e-05
1.1868171e-05
1.1868171e-05
1.1868171e-05
1.1868171e-05
1.1868171e-05
1.1868171e-05
1.1868171e-05
1.1868171e-05
1.1868171e-05
1.1868171e-05
1.1868171e-05
1.1868171e-05
1.0777269e-05
1.0777269e-05
1.0777269e-05
1.0777269e-05
1.0777269e-05
1.0777269e-05
1.0777269e-05
1.0777269e-05
1.0777269e-05
1.0777269e-05
1.0777269e-05
1.0777269e-05
1.0777269e-05
1.0777269e-05
1.0777269e-05
1.0777269e-05
1.0777269e-05
1.0777269e-05
1.0777269e-05
1.0777269e-05
1.0777269e-05
1.0777269e-05
1.0777269e-05
1.0777269e-05
1.0777269e-05
1.0777269e-05
1.0777269e-05
1.0777269e-05
1.0777269e-05
1.0777269e-05
1.0777269e-05
1.0777269e-05
1.0777269e-05
1.0777269e-05
9.7681848e-06
9.7681849e-06
9.7681848e-06
9.7681849e-06
9.7681849e-06
9.7681848e-06
9.7681849e-06
9.7681849e-06
9.7681849e-06
9.7681848e-06
9.7681849e-06
9.7681849e-06
9.7681849e-06
9.7681849e-06
9.7681849e-06
9.7681849e-06
9.7681849e-06
9.7681849e-06
9.7681849e-06
9.7681849e-06
9.7681849e-06
9.7681849e-06
9.7681849e-06
9.7681849e-06
9.7681849e-06
9.7681849e-06
9.7681848e-06
9.7681849e-06
9.7681849e-06
9.7681849e-06
9.7681848e-06
9.7681849e-06
9.7681849e-06
9.7681848e-06
3.8604327e-05
4.1447584e-05
4.4470251e-05
4.7678845e-05
5.1079307e-05
5.4676839e-05
5.8475714e-05
6.2479078e-05
6.6688721e-05
7.1104844e-05
7.5725803e-05
8.0547845e-05
8.5564843e-05
9.0768024e-05
9.6145705e-05
0.00010168306
0.00010736189
0.00011316045
0.00011905332
0.00012501135
0.00013100167
0.00013698777
0.00014292974
0.00014878457
0.00015450657
0.00016004795
0.00016535943
3.8331077e-05
4.1152211e-05
4.4151038e-05
4.7333957e-05
5.070679e-05
5.4274615e-05
5.8041581e-05
6.2010708e-05
6.6183666e-05
7.0560535e-05
7.5139564e-05
7.9916902e-05
8.4886342e-05
9.0039053e-05
9.5363324e-05
0.00010084434
0.00010646394
0.00011220051
0.00011802879
0.00012391986
0.00012984119
0.00013575667
0.00014162692
0.00014740954
0.00015305955
0.00015852999
0.00016377249
3.7810908e-05
4.059239e-05
4.3548847e-05
4.6686542e-05
5.0011163e-05
5.3527659e-05
5.7240055e-05
6.1151258e-05
6.5262832e-05
6.9574773e-05
7.4085259e-05
7.8790394e-05
8.3683954e-05
8.8757122e-05
9.3998243e-05
9.9392593e-05
0.00010492218
0.00011056555
0.00011629774
0.00012209016
0.00012791066
0.00013372362
0.0001394902
0.00014516863
0.00015071465
0.00015608205
0.00016122332
3.7056962e-05
3.9781671e-05
4.2677571e-05
4.5750754e-05
4.9006743e-05
5.2450328e-05
5.6085392e-05
5.991471e-05
6.393974e-05
6.8160393e-05
7.2574795e-05
7.7179033e-05
8.1966907e-05
8.6929676e-05
9.2055811e-05
9.7330782e-05
0.00010273685
0.00010825291
0.00011385441
0.00011951325
0.00012519788
0.00013087337
0.00013650166
0.00014204185
0.00014745064
0.00015268286
0.00015769213
3.6088204e-05
3.874048e-05
4.1559201e-05
4.4550258e-05
4.771898e-05
5.106998e-05
5.4606978e-05
5.8332612e-05
6.224823e-05
6.635367e-05
7.0647022e-05
7.5124388e-05
7.9779638e-05
8.4604162e-05
8.9586637e-05
9.4712814e-05
9.9965322e-05
0.00010532352
0.00011076341
0.00011625756
0.00012177519
0.00012728226
0.00013274169
0.00013811367
0.00014335609
0.00014842506
0.00015327555
3.4928144e-05
3.749411e-05
4.0220934e-05
4.311428e-05
4.6179263e-05
4.9420301e-05
5.2840942e-05
5.6443683e-05
6.0229763e-05
6.4198959e-05
6.8349346e-05
7.2677076e-05
7.717613e-05
8.1838091e-05
8.665191e-05
9.1603704e-05
9.6676575e-05
0.00010185046
0.00010710204
0.00011240472
0.00011772864
0.0001230408
0.00012830529
0.00013348361
0.00013853501
0.0001434171
0.00014808641
3.3603676e-05
3.6071467e-05
3.869382e-05
4.1476153e-05
4.4423352e-05
4.7539627e-05
5.0828348e-05
5.4291869e-05
5.7931331e-05
6.1746458e-05
6.5735338e-05
6.98942e-05
7.4217184e-05