# Probe 0 (0.0433013 0.025 0)
# Time        0            
0             (0.0372204 -0.0662007 -2.8487e-20)
0.000145068   (0.0373836 -0.0664932 -2.85554e-20)
0.000290135   (0.0376442 -0.0669588 -2.8635e-20)
0.000435175   (0.0379043 -0.0674227 -2.8732e-20)
0.000580187   (0.0381654 -0.0678896 -2.88928e-20)
0.000725198   (0.0384283 -0.0683599 -2.88337e-20)
0.000870182   (0.0386927 -0.0688329 -2.8896e-20)
0.00101514    (0.0389577 -0.0693076 -2.89485e-20)
0.00116009    (0.0392248 -0.0697861 -2.90769e-20)
0.00130502    (0.0394935 -0.0702679 -2.91062e-20)
0.00144992    (0.0397626 -0.0707507 -2.92065e-20)
0.00159482    (0.0400323 -0.0712349 -2.93334e-20)
0.00173969    (0.0403038 -0.0717228 -2.94438e-20)
0.00188456    (0.0405765 -0.0722129 -2.94434e-20)
0.0020294     (0.0408487 -0.0727027 -2.95369e-20)
0.00217422    (0.0411223 -0.0731952 -2.95822e-20)
0.00231904    (0.0413989 -0.0736932 -2.97246e-20)
0.00246382    (0.041675 -0.0741906 -2.97707e-20)
0.00260861    (0.0419501 -0.0746867 -2.98805e-20)
0.00275337    (0.0422265 -0.0751852 -2.99743e-20)
0.00289813    (0.0425048 -0.0756874 -2.9991e-20)
0.00304286    (0.042784 -0.0761913 -3.00503e-20)
0.00318759    (0.0430635 -0.076696 -3.01027e-20)
0.00333229    (0.0433437 -0.0772026 -3.01845e-20)
0.003477      (0.0436241 -0.0777096 -3.03132e-20)
0.00362167    (0.0439052 -0.0782182 -3.03408e-20)
0.00376635    (0.0441859 -0.0787266 -3.04376e-20)
0.00391099    (0.0444672 -0.0792365 -3.051e-20)
0.00405564    (0.0447546 -0.0797572 -3.05581e-20)
0.00420026    (0.045046 -0.0802853 -3.06761e-20)
0.00434488    (0.0453372 -0.0808135 -3.06453e-20)
0.0044895     (0.0456261 -0.0813385 -3.06848e-20)
0.00463409    (0.045913 -0.0818604 -3.07637e-20)
0.00477868    (0.0461997 -0.0823826 -3.07862e-20)
0.00492324    (0.0464865 -0.0829053 -3.08958e-20)
0.0050678     (0.0467734 -0.0834286 -3.08807e-20)
0.00521237    (0.0470606 -0.0839529 -3.0944e-20)
0.0053569     (0.0473478 -0.0844775 -3.10121e-20)
0.00550144    (0.047636 -0.0850043 -3.10356e-20)
0.00564597    (0.0479254 -0.0855336 -3.10443e-20)
0.00579048    (0.048215 -0.0860637 -3.10931e-20)
0.00593498    (0.0485035 -0.0865921 -3.11512e-20)
0.00607949    (0.048791 -0.0871193 -3.12025e-20)
0.00622397    (0.0490786 -0.0876471 -3.12559e-20)
0.00636845    (0.0493662 -0.0881753 -3.12806e-20)
0.00651293    (0.0496535 -0.0887034 -3.13718e-20)
0.00665738    (0.0499395 -0.0892292 -3.14472e-20)
0.00680183    (0.050227 -0.0897577 -3.13849e-20)
0.00694628    (0.0505169 -0.0902907 -3.1437e-20)
0.00709073    (0.0508061 -0.0908229 -3.14052e-20)
0.00723515    (0.0510941 -0.0913536 -3.14575e-20)
0.00737957    (0.0513811 -0.091883 -3.15351e-20)
0.007524      (0.0516676 -0.0924116 -3.15192e-20)
0.00766842    (0.051954 -0.0929407 -3.15979e-20)
0.00781284    (0.0522402 -0.0934699 -3.16333e-20)
0.00795724    (0.052525 -0.0939976 -3.15995e-20)
0.00810163    (0.0528086 -0.0945241 -3.16647e-20)
0.00824602    (0.0530902 -0.0950475 -3.16434e-20)
0.00839042    (0.0533696 -0.095568 -3.16841e-20)
0.00853481    (0.0536478 -0.096087 -3.16834e-20)
0.00867921    (0.0539232 -0.0966018 -3.17155e-20)
0.0088236     (0.0541985 -0.0971169 -3.17515e-20)
0.00896797    (0.0544722 -0.0976298 -3.17406e-20)
0.00911234    (0.0547412 -0.0981349 -3.17346e-20)
0.0092567     (0.0550086 -0.0986375 -3.17702e-20)
0.00940107    (0.0552769 -0.0991418 -3.18301e-20)
0.00954543    (0.0555439 -0.099644 -3.18662e-20)
0.0096898     (0.0558076 -0.100141 -3.18758e-20)
0.00983417    (0.0560678 -0.100632 -3.1838e-20)
0.00997853    (0.0563243 -0.101116 -3.18695e-20)
0.0101229     (0.0565808 -0.101601 -3.1858e-20)
0.0102673     (0.0568351 -0.102081 -3.18699e-20)
0.0104116     (0.057084 -0.102553 -3.19212e-20)
0.010556      (0.0573306 -0.10302 -3.18021e-20)
0.0107004     (0.0575768 -0.103487 -3.18637e-20)
0.0108447     (0.0578234 -0.103954 -3.1864e-20)
0.0109891     (0.0580686 -0.104419 -3.18882e-20)
0.0111335     (0.058311 -0.104879 -3.19081e-20)
0.0112778     (0.0585496 -0.105332 -3.18497e-20)
0.0114222     (0.0587846 -0.105779 -3.18918e-20)
0.0115666     (0.0590176 -0.106223 -3.18761e-20)
0.0117109     (0.0592479 -0.106661 -3.19174e-20)
0.0118553     (0.0594753 -0.107095 -3.18769e-20)
0.0119997     (0.0597002 -0.107525 -3.18672e-20)
0.012144      (0.0599213 -0.107948 -3.18495e-20)
0.0122884     (0.0601388 -0.108365 -3.18534e-20)
0.0124328     (0.0603539 -0.108777 -3.18468e-20)
0.0125772     (0.0605675 -0.109187 -3.18788e-20)
0.0127215     (0.0607778 -0.109591 -3.18528e-20)
0.0128659     (0.0609841 -0.109987 -3.18545e-20)
0.0130103     (0.0611867 -0.110377 -3.18399e-20)
0.0131547     (0.0613868 -0.110763 -3.18479e-20)
0.0132991     (0.0615858 -0.111146 -3.18464e-20)
0.0134435     (0.0617795 -0.11152 -3.18045e-20)
0.0135879     (0.0619684 -0.111885 -3.1801e-20)
0.0137324     (0.0621556 -0.112247 -3.18256e-20)
0.0138768     (0.0623389 -0.112602 -3.18133e-20)
0.0140212     (0.0625177 -0.112949 -3.17153e-20)
0.0141656     (0.0626937 -0.113291 -3.16357e-20)
0.0143101     (0.0628664 -0.113627 -3.16882e-20)
0.0144545     (0.0630359 -0.113958 -3.17237e-20)
0.014599      (0.0632021 -0.114282 -3.16946e-20)
0.0147434     (0.0633653 -0.114601 -3.16517e-20)
0.0148879     (0.0635257 -0.114915 -3.16352e-20)
0.0150324     (0.0636828 -0.115222 -3.15963e-20)
0.0151769     (0.0638363 -0.115522 -3.15695e-20)
0.0153214     (0.0639859 -0.115816 -3.1634e-20)
0.0154659     (0.0641311 -0.116102 -3.15749e-20)
0.0156104     (0.0642718 -0.116379 -3.15545e-20)
0.0157549     (0.0644083 -0.11665 -3.15278e-20)
0.0158994     (0.0645414 -0.116914 -3.14992e-20)
0.016044      (0.0646716 -0.117173 -3.14787e-20)
0.0161885     (0.0647971 -0.117424 -3.14671e-20)
0.0163331     (0.0649167 -0.117663 -3.13011e-20)
0.0164776     (0.0650341 -0.117899 -3.14157e-20)
0.0166222     (0.0651506 -0.118132 -3.13972e-20)
0.0167668     (0.0652635 -0.118357 -3.13168e-20)
0.0169114     (0.0653737 -0.118577 -3.13257e-20)
0.017056      (0.065478 -0.118787 -3.12738e-20)
0.0172006     (0.0655754 -0.118985 -3.11355e-20)
0.0173452     (0.0656696 -0.119177 -3.12522e-20)
0.0174899     (0.065761 -0.119364 -3.12623e-20)
0.0176345     (0.0658475 -0.119541 -3.12139e-20)
0.0177792     (0.0659295 -0.119711 -3.10607e-20)
0.0179239     (0.0660083 -0.119874 -3.0996e-20)
0.0180686     (0.0660836 -0.120031 -3.08541e-20)
0.0182133     (0.0661545 -0.12018 -3.09941e-20)
0.018358      (0.0662208 -0.12032 -3.0956e-20)
0.0185028     (0.0662834 -0.120453 -3.09234e-20)
0.0186475     (0.0663421 -0.120579 -3.09935e-20)
0.0187923     (0.0663966 -0.120697 -3.0851e-20)
0.018937      (0.066447 -0.120807 -3.08126e-20)
0.0190818     (0.0664934 -0.12091 -3.07779e-20)
0.0192266     (0.0665364 -0.121007 -3.07152e-20)
0.0193714     (0.0665758 -0.121097 -3.07134e-20)
0.0195163     (0.0666106 -0.121178 -3.07089e-20)
0.0196611     (0.0666404 -0.121251 -3.06821e-20)
0.019806      (0.066666 -0.121316 -3.06921e-20)
0.0199509     (0.0666872 -0.121372 -3.06263e-20)
0.0200958     (0.0667051 -0.121423 -3.05468e-20)
0.0202407     (0.0667218 -0.12147 -3.04359e-20)
0.0203856     (0.0667355 -0.121512 -3.04204e-20)
0.0205306     (0.0667478 -0.121551 -3.04448e-20)
0.0206756     (0.0667584 -0.121586 -3.03941e-20)
0.0208206     (0.066764 -0.121612 -3.03526e-20)
0.0209656     (0.0667646 -0.121629 -3.03045e-20)
0.0211106     (0.0667614 -0.121638 -3.02637e-20)
0.0212556     (0.0667547 -0.121641 -3.02202e-20)
0.0214007     (0.0667454 -0.121638 -3.01601e-20)
0.0215458     (0.0667322 -0.121628 -3.01568e-20)
0.0216909     (0.0667152 -0.12161 -3.01284e-20)
0.021836      (0.0666952 -0.121587 -3.01516e-20)
0.0219811     (0.0666701 -0.121554 -2.99777e-20)
0.0221263     (0.0666422 -0.121516 -2.99499e-20)
0.0222715     (0.0666135 -0.121475 -2.98752e-20)
0.0224167     (0.0665822 -0.12143 -2.99099e-20)
0.0225619     (0.0665482 -0.121379 -2.98621e-20)
0.0227072     (0.0665109 -0.121322 -2.98319e-20)
0.0228524     (0.0664698 -0.121258 -2.97732e-20)
0.0229977     (0.0664262 -0.12119 -2.97843e-20)
0.023143      (0.0663801 -0.121116 -2.98195e-20)
0.0232884     (0.0663306 -0.121036 -2.97541e-20)
0.0234337     (0.0662784 -0.120951 -2.96308e-20)
0.0235791     (0.0662245 -0.120862 -2.95798e-20)
0.0237245     (0.0661674 -0.120767 -2.9493e-20)
0.0238699     (0.0661068 -0.120666 -2.94538e-20)
0.0240154     (0.0660435 -0.120559 -2.94338e-20)
0.0241608     (0.0659793 -0.120451 -2.94101e-20)
0.0243063     (0.0659131 -0.120338 -2.93175e-20)
0.0244518     (0.0658442 -0.120221 -2.93071e-20)
0.0245974     (0.0657745 -0.120101 -2.92021e-20)
0.024743      (0.0657018 -0.119976 -2.91671e-20)
0.0248886     (0.0656245 -0.119842 -2.91071e-20)
0.0250342     (0.0655447 -0.119704 -2.90666e-20)
0.0251798     (0.0654642 -0.119564 -2.90621e-20)
0.0253255     (0.0653828 -0.119422 -2.9003e-20)
0.0254712     (0.0653002 -0.119278 -2.88333e-20)
0.0256169     (0.065215 -0.119129 -2.9032e-20)
0.0257627     (0.0651266 -0.118974 -2.90335e-20)
0.0259085     (0.0650363 -0.118815 -2.90526e-20)
0.0260543     (0.0649441 -0.118653 -2.88552e-20)
0.0262001     (0.0648499 -0.118487 -2.89289e-20)
0.026346      (0.0647549 -0.118319 -2.88416e-20)
0.0264919     (0.0646601 -0.118151 -2.8739e-20)
0.0266378     (0.0645625 -0.117978 -2.8794e-20)
0.0267838     (0.0644605 -0.117798 -2.87542e-20)
0.0269297     (0.0643565 -0.117614 -2.87058e-20)
0.0270758     (0.0642507 -0.117426 -2.87107e-20)
0.0272218     (0.0641421 -0.117233 -2.86735e-20)
0.0273679     (0.0640325 -0.117039 -2.85459e-20)
0.027514      (0.0639241 -0.116846 -2.84803e-20)
0.0276601     (0.0638159 -0.116653 -2.84174e-20)
0.0278063     (0.0637058 -0.116457 -2.83849e-20)
0.0279525     (0.0635939 -0.116257 -2.83181e-20)
0.0280987     (0.0634818 -0.116057 -2.82241e-20)
0.0282449     (0.0633681 -0.115854 -2.8163e-20)
0.0283912     (0.0632513 -0.115645 -2.8325e-20)
0.0285375     (0.0631313 -0.115431 -2.83415e-20)
0.0286839     (0.0630096 -0.115214 -2.83007e-20)
0.0288302     (0.0628872 -0.114995 -2.82557e-20)
0.0289766     (0.0627636 -0.114774 -2.82966e-20)
0.0291231     (0.0626393 -0.114551 -2.82195e-20)
0.0292696     (0.0625143 -0.114327 -2.80311e-20)
0.0294161     (0.062388 -0.114101 -2.79907e-20)
0.0295627     (0.0622601 -0.113871 -2.7935e-20)
0.0297092     (0.0621307 -0.11364 -2.78858e-20)
0.0298559     (0.0620003 -0.113406 -2.79295e-20)
0.0300025     (0.0618684 -0.113169 -2.79019e-20)
0.0301492     (0.0617351 -0.11293 -2.78369e-20)
0.0302959     (0.0616009 -0.112689 -2.78009e-20)
0.0304427     (0.0614663 -0.112446 -2.77769e-20)
0.0305895     (0.0613296 -0.112201 -2.77354e-20)
0.0307363     (0.0611907 -0.111951 -2.7646e-20)
0.0308832     (0.061051 -0.1117 -2.75927e-20)
0.0310301     (0.0609105 -0.111447 -2.75182e-20)
0.031177      (0.0607689 -0.111192 -2.75261e-20)
0.031324      (0.060626 -0.110935 -2.75297e-20)
0.031471      (0.0604823 -0.110676 -2.74926e-20)
0.0316181     (0.0603373 -0.110415 -2.74713e-20)
0.0317652     (0.0601915 -0.110152 -2.73987e-20)
0.0319123     (0.0600463 -0.10989 -2.73422e-20)
0.0320595     (0.0598987 -0.109624 -2.73146e-20)
0.0322067     (0.0597478 -0.109352 -2.72606e-20)
0.0323539     (0.0595966 -0.10908 -2.72086e-20)
0.0325012     (0.0594457 -0.108808 -2.71641e-20)
0.0326485     (0.0592947 -0.108535 -2.7039e-20)
0.0327959     (0.0591436 -0.108262 -2.71336e-20)
0.0329433     (0.0589921 -0.107989 -2.71154e-20)
0.0330908     (0.0588373 -0.10771 -2.70433e-20)
0.0332383     (0.0586793 -0.107425 -2.69833e-20)
0.0333858     (0.0585206 -0.107139 -2.69073e-20)
0.0335334     (0.0583621 -0.106854 -2.68662e-20)
0.033681      (0.0582007 -0.106563 -2.68345e-20)
0.0338287     (0.0580366 -0.106268 -2.67443e-20)
0.0339764     (0.0578728 -0.105974 -2.67863e-20)
0.0341241     (0.057709 -0.105679 -2.67468e-20)
0.0342719     (0.0575452 -0.105384 -2.67847e-20)
0.0344197     (0.0573809 -0.105087 -2.67694e-20)
0.0345676     (0.0572154 -0.104789 -2.66953e-20)
0.0347155     (0.0570494 -0.10449 -2.65438e-20)
0.0348635     (0.0568804 -0.104185 -2.6533e-20)
0.0350115     (0.0567086 -0.103876 -2.65586e-20)
0.0351596     (0.0565365 -0.103566 -2.65179e-20)
0.0353077     (0.056363 -0.103253 -2.64805e-20)
0.0354558     (0.0561882 -0.102939 -2.64447e-20)
0.035604      (0.0560124 -0.102622 -2.64018e-20)
0.0357522     (0.0558355 -0.102304 -2.63653e-20)
0.0359005     (0.0556575 -0.101983 -2.63284e-20)
0.0360489     (0.0554778 -0.10166 -2.6286e-20)
0.0361972     (0.0552974 -0.101335 -2.62572e-20)
0.0363457     (0.0551176 -0.101011 -2.60792e-20)
0.0364941     (0.0549374 -0.100687 -2.59918e-20)
0.0366426     (0.0547545 -0.100358 -2.60839e-20)
0.0367912     (0.0545686 -0.100023 -2.60693e-20)
0.0369398     (0.0543811 -0.0996865 -2.59687e-20)
0.0370885     (0.0541932 -0.0993487 -2.59593e-20)
0.0372372     (0.0540047 -0.0990097 -2.59263e-20)
0.037386      (0.0538149 -0.0986684 -2.59073e-20)
0.0375348     (0.0536228 -0.0983232 -2.57779e-20)
0.0376837     (0.0534285 -0.0979743 -2.57119e-20)
0.0378326     (0.0532336 -0.0976243 -2.57216e-20)
0.0379816     (0.0530378 -0.0972728 -2.56849e-20)
0.0381306     (0.0528406 -0.0969186 -2.56407e-20)
0.0382797     (0.052642 -0.0965619 -2.55689e-20)
0.0384288     (0.0524415 -0.0962021 -2.54839e-20)
0.0385779     (0.0522391 -0.0958388 -2.55353e-20)
0.0387272     (0.0520354 -0.0954733 -2.55216e-20)
0.0388765     (0.0518304 -0.0951057 -2.54663e-20)
0.0390258     (0.0516242 -0.0947357 -2.53538e-20)
0.0391752     (0.0514156 -0.0943615 -2.55373e-20)
0.0393246     (0.0512058 -0.0939854 -2.54358e-20)
0.0394741     (0.0509949 -0.0936071 -2.53673e-20)
0.0396237     (0.050782 -0.0932254 -2.53872e-20)
0.0397733     (0.0505674 -0.0928409 -2.53691e-20)
0.0399229     (0.050352 -0.0924548 -2.52762e-20)
0.0400726     (0.0501356 -0.092067 -2.52192e-20)
0.0402224     (0.0499167 -0.0916749 -2.51393e-20)
0.0403722     (0.0496951 -0.0912781 -2.51118e-20)
0.0405221     (0.0494722 -0.0908789 -2.50695e-20)
0.040672      (0.049248 -0.0904775 -2.50308e-20)
0.040822      (0.0490214 -0.0900717 -2.49183e-20)
0.0409721     (0.048793 -0.0896627 -2.49311e-20)
0.0411222     (0.048563 -0.0892507 -2.48942e-20)
0.0412724     (0.0483315 -0.0888361 -2.48423e-20)
0.0414226     (0.0480973 -0.0884167 -2.48559e-20)
0.0415729     (0.047861 -0.0879935 -2.47948e-20)
0.0417232     (0.0476233 -0.0875678 -2.47719e-20)
0.0418737     (0.0473843 -0.08714 -2.47415e-20)
0.0420241     (0.047143 -0.086708 -2.46687e-20)
0.0421747     (0.0469002 -0.0862733 -2.46154e-20)
0.0423253     (0.0466549 -0.0858341 -2.45984e-20)
0.0424759     (0.0464075 -0.085391 -2.45772e-20)
0.0426266     (0.046159 -0.0849459 -2.44934e-20)
0.0427774     (0.0459083 -0.0844968 -2.44445e-20)
0.0429282     (0.0456558 -0.0840443 -2.44073e-20)
0.0430791     (0.045401 -0.0835879 -2.43511e-20)
0.0432301     (0.0451432 -0.0831259 -2.43258e-20)
0.0433811     (0.0448845 -0.0826624 -2.42961e-20)
0.0435322     (0.044625 -0.0821973 -2.4268e-20)
0.0436833     (0.0443628 -0.0817274 -2.42298e-20)
0.0438345     (0.044098 -0.081253 -2.42138e-20)
0.0439858     (0.0438326 -0.0807773 -2.41907e-20)
0.0441371     (0.0435665 -0.0803002 -2.42372e-20)
0.0442886     (0.0432993 -0.0798211 -2.40994e-20)
0.04444       (0.0430307 -0.0793395 -2.40851e-20)
0.0445916     (0.0427592 -0.0788527 -2.40577e-20)
0.0447432     (0.0424841 -0.0783596 -2.40166e-20)
0.0448948     (0.0422061 -0.0778615 -2.39729e-20)
0.0450466     (0.041927 -0.0773613 -2.39596e-20)
0.0451984     (0.0416466 -0.0768587 -2.39607e-20)
0.0453502     (0.0413633 -0.0763509 -2.39656e-20)
0.0455022     (0.0410779 -0.0758393 -2.38153e-20)
0.0456542     (0.0407911 -0.0753254 -2.37622e-20)
0.0458063     (0.0405027 -0.0748084 -2.3745e-20)
0.0459584     (0.0402128 -0.0742883 -2.37916e-20)
0.0461107     (0.0399231 -0.0737681 -2.37859e-20)
0.046263      (0.0396329 -0.0732466 -2.37726e-20)
0.0464153     (0.0393403 -0.0727211 -2.37567e-20)
0.0465677     (0.039046 -0.0721927 -2.3655e-20)
0.0467202     (0.0387482 -0.0716581 -2.36275e-20)
0.0468728     (0.0384471 -0.0711178 -2.36912e-20)
0.0470255     (0.038145 -0.0705756 -2.36826e-20)
0.0471782     (0.0378423 -0.0700324 -2.36428e-20)
0.047331      (0.0375375 -0.0694856 -2.35596e-20)
0.0474838     (0.0372303 -0.0689347 -2.36457e-20)
0.0476368     (0.0369214 -0.068381 -2.36144e-20)
0.0477898     (0.0366109 -0.0678244 -2.36075e-20)
0.0479429     (0.0362989 -0.0672656 -2.36253e-20)
0.048096      (0.0359856 -0.0667046 -2.35926e-20)
0.0482492     (0.0356711 -0.0661418 -2.35226e-20)
0.0484026     (0.0353534 -0.0655735 -2.35787e-20)
0.0485559     (0.0350336 -0.0649995 -2.3665e-20)
0.0487094     (0.034715 -0.0644257 -2.36331e-20)
0.0488629     (0.034398 -0.0638544 -2.35172e-20)
0.0490165     (0.0340794 -0.06328 -2.34805e-20)
0.0491702     (0.0337582 -0.0627013 -2.34642e-20)
0.049324      (0.0334359 -0.0621207 -2.34553e-20)
0.0494779     (0.0331079 -0.0615302 -2.35661e-20)
0.0496318     (0.0327756 -0.0609321 -2.36132e-20)
0.0497858     (0.0324433 -0.0603335 -2.36102e-20)
0.0499399     (0.032111 -0.0597333 -2.35497e-20)
0.050094      (0.0317808 -0.0591351 -2.35332e-20)
0.0502483     (0.0314496 -0.0585353 -2.35353e-20)
0.0504026     (0.031116 -0.0579324 -2.35528e-20)
0.050557      (0.0307826 -0.0573293 -2.35681e-20)
0.0507115     (0.0304481 -0.0567244 -2.35963e-20)
0.050866      (0.0301106 -0.0561145 -2.35309e-20)
0.0510207     (0.0297713 -0.0555014 -2.35342e-20)
0.0511754     (0.0294318 -0.0548879 -2.35261e-20)
0.0513302     (0.0290916 -0.0542731 -2.35347e-20)
0.0514852     (0.0287504 -0.0536567 -2.3562e-20)
0.0516401     (0.0284062 -0.0530352 -2.35859e-20)
0.0517952     (0.0280606 -0.0524111 -2.35648e-20)
0.0519504     (0.0277144 -0.0517862 -2.36158e-20)
0.0521056     (0.0273674 -0.0511598 -2.3592e-20)
0.0522609     (0.0270211 -0.0505346 -2.35608e-20)
0.0524163     (0.0266746 -0.049909 -2.35663e-20)
0.0525718     (0.0263275 -0.0492824 -2.35816e-20)
0.0527274     (0.0259784 -0.0486525 -2.36593e-20)
0.0528831     (0.0256255 -0.0480158 -2.373e-20)
0.0530388     (0.0252718 -0.0473778 -2.37714e-20)
0.0531947     (0.0249183 -0.0467399 -2.37084e-20)
0.0533506     (0.0245646 -0.0461019 -2.37852e-20)
0.0535066     (0.0242079 -0.0454583 -2.38179e-20)
0.0536627     (0.0238473 -0.0448082 -2.38482e-20)
0.0538189     (0.0234865 -0.0441578 -2.3884e-20)
0.0539752     (0.0231275 -0.0435101 -2.39393e-20)
0.0541316     (0.0227674 -0.0428606 -2.39968e-20)
0.0542879     (0.0224047 -0.0422067 -2.39185e-20)
0.0544441     (0.0220423 -0.0415533 -2.39255e-20)
0.0546002     (0.0216794 -0.0408991 -2.39521e-20)
0.0547562     (0.0213145 -0.0402417 -2.39646e-20)
0.0549121     (0.0209509 -0.0395864 -2.4001e-20)
0.0550679     (0.0205901 -0.0389358 -2.40488e-20)
0.0552236     (0.0202303 -0.0382871 -2.41e-20)
0.0553792     (0.0198693 -0.0376363 -2.41299e-20)
0.0555347     (0.0195067 -0.0369829 -2.41056e-20)
0.0556901     (0.0191453 -0.0363322 -2.41748e-20)
0.0558454     (0.0187823 -0.0356794 -2.42559e-20)
0.0560006     (0.0184188 -0.0350259 -2.42415e-20)
0.0561557     (0.0180565 -0.0343743 -2.42563e-20)
0.0563107     (0.0176951 -0.0337245 -2.42707e-20)
0.0564656     (0.0173345 -0.0330765 -2.43104e-20)
0.0566204     (0.0169733 -0.0324272 -2.43448e-20)
0.0567751     (0.0166115 -0.0317766 -2.44434e-20)
0.0569297     (0.0162482 -0.0311231 -2.44088e-20)
0.0570842     (0.0158851 -0.0304702 -2.44516e-20)
0.0572386     (0.0155229 -0.0298188 -2.4458e-20)
0.0573929     (0.0151597 -0.0291655 -2.45297e-20)
0.0575471     (0.0147952 -0.0285104 -2.46382e-20)
0.0577012     (0.014431 -0.0278556 -2.4615e-20)
0.0578552     (0.0140692 -0.027205 -2.46058e-20)
0.0580091     (0.0137059 -0.026552 -2.46862e-20)
0.0581629     (0.0133391 -0.025893 -2.46444e-20)
0.0583166     (0.01297 -0.0252303 -2.4691e-20)
0.0584702     (0.012601 -0.0245678 -2.47093e-20)
0.0586237     (0.0122365 -0.0239131 -2.47218e-20)
0.0587771     (0.0118729 -0.0232598 -2.48221e-20)
0.0589304     (0.0115071 -0.0226028 -2.48855e-20)
0.0590836     (0.011141 -0.0219452 -2.4971e-20)
0.0592367     (0.0107755 -0.0212885 -2.49926e-20)
0.0593897     (0.0104103 -0.0206324 -2.5036e-20)
0.0595426     (0.0100455 -0.0199765 -2.50896e-20)
0.0596954     (0.00968 -0.0193192 -2.51255e-20)
0.0598481     (0.00931586 -0.0186644 -2.51593e-20)
0.0600007     (0.00895457 -0.0180143 -2.52315e-20)
0.0601532     (0.00859453 -0.0173663 -2.52126e-20)
0.0603056     (0.00823499 -0.0167193 -2.52418e-20)
0.0604579     (0.00787327 -0.0160686 -2.53489e-20)
0.0606101     (0.00750924 -0.0154139 -2.54412e-20)
0.0607622     (0.00714472 -0.0147587 -2.55275e-20)
0.0609142     (0.00678176 -0.0141064 -2.56176e-20)
0.0610661     (0.00642188 -0.0134595 -2.56354e-20)
0.0612179     (0.0060626 -0.0128139 -2.56921e-20)
0.0613697     (0.00570303 -0.012168 -2.57857e-20)
0.0615213     (0.00534482 -0.0115244 -2.57837e-20)
0.0616728     (0.00498832 -0.0108838 -2.57694e-20)
0.0618242     (0.0046335 -0.0102463 -2.57883e-20)
0.0619755     (0.00427953 -0.00960967 -2.58842e-20)
0.0621267     (0.0039262 -0.00897335 -2.59729e-20)
0.0622777     (0.0035709 -0.00833418 -2.60682e-20)
0.0624287     (0.00321637 -0.00769713 -2.61639e-20)
0.0625796     (0.00286504 -0.00706776 -2.6158e-20)
0.0627304     (0.00250978 -0.00643431 -2.62171e-20)
0.0628811     (0.00215037 -0.00579466 -2.63665e-20)
0.0630317     (0.00179314 -0.0051583 -2.64808e-20)
0.0631821     (0.00144764 -0.00453837 -2.66172e-20)
0.0633325     (0.00110769 -0.00392386 -2.67308e-20)
0.0634828     (0.000761467 -0.00330026 -2.68136e-20)
0.063633      (0.000417889 -0.00268299 -2.69097e-20)
0.0637831     (7.13638e-05 -0.00206989 -2.69147e-20)
0.0639331     (-0.00028962 -0.00146221 -2.70054e-20)
0.064083      (-0.000662563 -0.000844603 -2.71791e-20)
0.0642328     (-0.00105308 -0.000195881 -2.71498e-20)
0.0643825     (-0.0014579 0.000481676 -2.72199e-20)
0.0645321     (-0.00190212 0.00119675 -2.73455e-20)
0.0646816     (-0.00235725 0.00193578 -2.73328e-20)
0.064831      (-0.00270607 0.00262628 -2.74421e-20)
0.0649803     (-0.00301787 0.00326643 -2.76636e-20)
0.0651294     (-0.00332521 0.0039082 -2.77607e-20)
0.0652785     (-0.00354209 0.00452836 -2.78792e-20)
0.0654275     (-0.00375737 0.00510472 -2.7958e-20)
0.0655764     (-0.00401416 0.00568213 -2.80525e-20)
0.0657252     (-0.0042845 0.00626877 -2.8119e-20)
0.0658739     (-0.0045946 0.00679785 -2.8227e-20)
0.0660225     (-0.004991 0.00741184 -2.83073e-20)
0.066171      (-0.00538673 0.00805728 -2.84788e-20)
0.0663194     (-0.00572892 0.00862792 -2.85079e-20)
0.0664677     (-0.00608217 0.00922401 -2.86442e-20)
0.0666158     (-0.0064218 0.00979628 -2.87168e-20)
0.0667639     (-0.00674887 0.0103457 -2.88419e-20)
0.0669119     (-0.00707881 0.010906 -2.89983e-20)
0.0670598     (-0.00738919 0.011462 -2.90773e-20)
0.0672076     (-0.00765908 0.0120686 -2.92286e-20)
0.0673553     (-0.00788152 0.012717 -2.9292e-20)
0.0675029     (-0.0081319 0.013335 -2.94087e-20)
0.0676504     (-0.00846397 0.0138978 -2.94583e-20)
0.0677978     (-0.00884944 0.0144469 -2.96296e-20)
0.0679451     (-0.00922087 0.014976 -2.98666e-20)
0.0680922     (-0.00955875 0.0155106 -2.98824e-20)
0.0682393     (-0.00988386 0.0160704 -3.00508e-20)
0.0683863     (-0.0101977 0.0166223 -3.01905e-20)
0.0685332     (-0.0105047 0.0171739 -3.03308e-20)
0.06868       (-0.0108099 0.0177319 -3.04872e-20)
0.0688267     (-0.0111112 0.0182873 -3.06737e-20)
0.0689733     (-0.0114098 0.0188362 -3.06973e-20)
0.0691198     (-0.0117103 0.0193813 -3.07617e-20)
0.0692662     (-0.0120067 0.0199122 -3.09061e-20)
0.0694125     (-0.0123048 0.0204422 -3.11603e-20)
0.0695587     (-0.0126067 0.0209773 -3.14006e-20)
0.0697048     (-0.0129027 0.0215022 -3.13277e-20)
0.0698508     (-0.0131963 0.0220224 -3.14729e-20)
0.0699967     (-0.0134895 0.0225412 -3.16578e-20)
0.0701425     (-0.0137774 0.0230511 -3.17129e-20)
0.0702882     (-0.0140631 0.0235584 -3.18844e-20)
0.0704339     (-0.0143437 0.0240578 -3.21341e-20)
0.0705794     (-0.0146211 0.0245556 -3.22277e-20)
0.0707248     (-0.0148985 0.0250589 -3.24102e-20)
0.0708701     (-0.0151756 0.0255635 -3.25995e-20)
0.0710153     (-0.0154453 0.0260554 -3.25858e-20)
0.0711604     (-0.0157036 0.0265307 -3.27498e-20)
0.0713055     (-0.0159547 0.0269966 -3.29281e-20)
0.0714504     (-0.0162044 0.027461 -3.29712e-20)
0.0715952     (-0.0164529 0.0279226 -3.31103e-20)
0.07174       (-0.0166966 0.0283733 -3.32888e-20)
0.0718846     (-0.0169372 0.0288164 -3.35952e-20)
0.0720292     (-0.0171744 0.0292533 -3.37763e-20)
0.0721736     (-0.0174038 0.0296775 -3.38481e-20)
0.0723179     (-0.0176257 0.0300895 -3.40394e-20)
0.0724622     (-0.0178422 0.0304929 -3.42374e-20)
0.0726064     (-0.0180618 0.0309024 -3.43781e-20)
0.0727504     (-0.0182864 0.0313213 -3.45295e-20)
0.0728944     (-0.0185075 0.0317331 -3.47032e-20)
0.0730383     (-0.018724 0.0321357 -3.48807e-20)
0.073182      (-0.0189383 0.0325342 -3.49931e-20)
0.0733257     (-0.0191477 0.0329237 -3.51629e-20)
0.0734693     (-0.0193515 0.0333031 -3.53646e-20)
0.0736128     (-0.019553 0.0336789 -3.54521e-20)
0.0737562     (-0.019751 0.0340488 -3.55891e-20)
0.0738995     (-0.0199482 0.0344177 -3.57907e-20)
0.0740427     (-0.0201486 0.0347927 -3.61321e-20)
0.0741858     (-0.0203464 0.0351637 -3.63143e-20)
0.0743288     (-0.0205361 0.0355205 -3.65021e-20)
0.0744717     (-0.0207198 0.0358664 -3.66338e-20)
0.0746145     (-0.0208995 0.0362046 -3.68363e-20)
0.0747572     (-0.0210741 0.0365331 -3.70631e-20)
0.0748998     (-0.0212453 0.0368549 -3.71475e-20)
0.0750424     (-0.0214116 0.0371677 -3.73582e-20)
0.0751848     (-0.0215735 0.0374721 -3.75025e-20)
0.0753271     (-0.02173 0.0377686 -3.77046e-20)
0.0754694     (-0.0218847 0.0380645 -3.78595e-20)
0.0756115     (-0.0220344 0.0383522 -3.79701e-20)
0.0757536     (-0.0221731 0.0386195 -3.82464e-20)
0.0758955     (-0.0223102 0.0388831 -3.83639e-20)
0.0760374     (-0.0224476 0.0391462 -3.8472e-20)
0.0761792     (-0.0225822 0.0394043 -3.87247e-20)
0.0763208     (-0.0227141 0.039658 -3.90474e-20)
0.0764624     (-0.0228454 0.0399106 -3.92718e-20)
0.0766039     (-0.0229728 0.0401565 -3.94254e-20)
0.0767453     (-0.0230917 0.0403871 -3.95759e-20)
0.0768866     (-0.0232035 0.0406045 -3.96636e-20)
0.0770278     (-0.02331 0.0408118 -3.98591e-20)
0.0771689     (-0.0234125 0.0410116 -4.00082e-20)
0.0773099     (-0.0235152 0.041211 -4.02434e-20)
0.0774509     (-0.023615 0.0414054 -4.03142e-20)
0.0775917     (-0.0237068 0.0415861 -4.06125e-20)
0.0777324     (-0.0237929 0.0417571 -4.08589e-20)
0.077873      (-0.0238755 0.0419225 -4.11424e-20)
0.0780136     (-0.0239535 0.04208 -4.12696e-20)
0.0781541     (-0.0240264 0.042229 -4.13096e-20)
0.0782944     (-0.0240951 0.0423716 -4.15035e-20)
0.0784347     (-0.0241568 0.0425026 -4.1723e-20)
0.0785749     (-0.0242143 0.0426264 -4.19748e-20)
0.078715      (-0.0242732 0.0427523 -4.19773e-20)
0.078855      (-0.0243302 0.0428747 -4.21472e-20)
0.0789949     (-0.024379 0.0429828 -4.23476e-20)
0.0791347     (-0.0244226 0.0430815 -4.25458e-20)
0.0792744     (-0.0244651 0.0431789 -4.27069e-20)
0.079414      (-0.0245075 0.043277 -4.30286e-20)
0.0795536     (-0.0245427 0.0433632 -4.32195e-20)
0.079693      (-0.0245655 0.0434278 -4.33626e-20)
0.0798324     (-0.0245859 0.0434875 -4.35799e-20)
0.0799716     (-0.0246042 0.0435433 -4.37927e-20)
0.0801108     (-0.0246158 0.0435871 -4.38364e-20)
0.0802499     (-0.0246246 0.0436257 -4.40152e-20)
0.0803889     (-0.0246278 0.0436543 -4.41833e-20)
0.0805278     (-0.0246294 0.0436798 -4.42233e-20)
0.0806666     (-0.02463 0.0437031 -4.43894e-20)
0.0808053     (-0.0246251 0.0437168 -4.4689e-20)
0.080944      (-0.0246152 0.0437219 -4.47973e-20)
0.0810825     (-0.0245988 0.0437156 -4.5013e-20)
0.081221      (-0.024576 0.0436982 -4.52315e-20)
0.0813594     (-0.0245482 0.0436721 -4.53656e-20)
0.0814976     (-0.0245192 0.0436437 -4.55676e-20)
0.0816358     (-0.0244876 0.0436109 -4.57885e-20)
0.0817739     (-0.0244508 0.0435689 -4.58983e-20)
0.0819119     (-0.0244102 0.0435201 -4.60708e-20)
0.0820498     (-0.0243682 0.0434684 -4.61244e-20)
0.0821877     (-0.0243217 0.0434091 -4.62541e-20)
0.0823254     (-0.0242713 0.0433428 -4.65408e-20)
0.0824631     (-0.0242189 0.043273 -4.66865e-20)
0.0826007     (-0.0241615 0.0431942 -4.68058e-20)
0.0827382     (-0.0240987 0.0431053 -4.70502e-20)
0.0828755     (-0.0240308 0.043007 -4.72158e-20)
0.0830128     (-0.0239569 0.0428983 -4.73964e-20)
0.0831501     (-0.0238818 0.0427877 -4.75561e-20)
0.0832872     (-0.0238085 0.0426802 -4.76647e-20)
0.0834242     (-0.0237313 0.0425657 -4.78504e-20)
0.0835612     (-0.0236479 0.0424395 -4.79591e-20)
0.0836981     (-0.0235587 0.042303 -4.82644e-20)
0.0838348     (-0.0234669 0.0421619 -4.83448e-20)
0.0839716     (-0.0233774 0.0420256 -4.84675e-20)
0.0841082     (-0.0232866 0.0418875 -4.85999e-20)
0.0842447     (-0.0231908 0.0417409 -4.87106e-20)
0.0843812     (-0.0230899 0.0415851 -4.89907e-20)
0.0845175     (-0.0229848 0.0414221 -4.90304e-20)
0.0846538     (-0.0228761 0.0412528 -4.9193e-20)
0.0847899     (-0.0227639 0.0410775 -4.9363e-20)
0.084926      (-0.0226477 0.0408951 -4.95802e-20)
0.085062      (-0.0225275 0.0407036 -4.95805e-20)
0.085198      (-0.0224049 0.0405058 -4.97275e-20)
0.0853338     (-0.0222773 0.0402989 -4.97668e-20)
0.0854696     (-0.0221446 0.0400831 -4.99482e-20)
0.0856052     (-0.0220104 0.0398648 -5.00771e-20)
0.0857408     (-0.0218774 0.0396482 -5.01547e-20)
0.0858763     (-0.0217428 0.0394274 -5.03035e-20)
0.0860118     (-0.0216065 0.0392019 -5.04457e-20)
0.0861471     (-0.0214671 0.0389714 -5.06125e-20)
0.0862824     (-0.0213219 0.0387312 -5.07409e-20)
0.0864175     (-0.0211739 0.0384861 -5.08886e-20)
0.0865526     (-0.0210225 0.0382349 -5.10365e-20)
0.0866876     (-0.0208703 0.0379821 -5.11195e-20)
0.0868226     (-0.0207183 0.0377293 -5.12534e-20)
0.0869574     (-0.0205606 0.0374665 -5.14814e-20)
0.0870922     (-0.0204026 0.0372028 -5.15066e-20)
0.0872269     (-0.020242 0.0369346 -5.16656e-20)
0.0873615     (-0.0200807 0.0366647 -5.16468e-20)
0.087496      (-0.0199212 0.0363975 -5.17727e-20)
0.0876304     (-0.0197566 0.0361215 -5.19418e-20)
0.0877648     (-0.0195892 0.0358402 -5.20752e-20)
0.087899      (-0.0194181 0.0355523 -5.21678e-20)
0.0880332     (-0.0192442 0.0352593 -5.2231e-20)
0.0881673     (-0.0190693 0.0349643 -5.2371e-20)
0.0883014     (-0.0188931 0.0346668 -5.23835e-20)