/*--------------------------------*- C++ -*----------------------------------*\
  =========                 |
  \\      /  F ield         | OpenFOAM: The Open Source CFD Toolbox
   \\    /   O peration     | Website:  https://openfoam.org
    \\  /    A nd           | Version:  8
     \\/     M anipulation  |
\*---------------------------------------------------------------------------*/
FoamFile
{
    version     2.0;
    format      ascii;
    class       pointScalarField;
    location    "10";
    object      motionScale;
}
// * * * * * * * * * * * * * * * * * * * * * * * * * * * * * * * * * * * * * //

dimensions      [0 0 0 0 0 0 0];

internalField   nonuniform List<scalar> 
37650
(
0
0
0
0
0
0
0
0
0
0
0
0
0
0
0
0
0
0
0
0
0
0
0
0
0
8.6757822e-06
0
0.00079741146
0
0.0025326231
0
0.004831008
0
0.0074104101
5.987677e-05
0.010071572
0.00037895827
0.012680466
0.0008710438
0.015152536
0.0014518207
0.017439451
0.0020644841
0.019518454
0.002672235
0.021384134
0.0032524874
0.023042271
0
0
0
0
0
0
0
0
0
0
0.00066021472
0.0035568725
0.0080379836
0.013456931
0.019318066
0.025259388
0.031030706
0.036470962
0.041487126
0.046035897
0.050108708
0.053719966
0.056898191
0.059679595
0
0
0
0
0
0
0
0
0.00055569675
0.0045729573
0.011490972
0.02028474
0.030113976
0.040324916
0.050435968
0.06011413
0.069147705
0.077419231
0.08488102
0.091534457
0.097413398
0.10257144
0.10707256
0.11098455
0
0
0
0
0
0
0
0.0023299381
0.0097201315
0.020786829
0.034248137
0.049020826
0.064240126
0.079254722
0.093605421
0.10699516
0.1192563
0.13031924
0.14018477
0.14890119
0.15654624
0.16321362
0.16900325
0.17401468
0
0
0
0
0
0
0.0037014285
0.013826197
0.028717982
0.046820164
0.066765288
0.087423508
0.1079162
0.12760374
0.14605699
0.16302083
0.17837615
0.19210431
0.20425653
0.21492903
0.22424379
0.23233443
0.23933631
0.24538005
0
0
0
0
0
0.0037014284
0.015372484
0.033232935
0.055467504
0.080404202
0.10660266
0.13289808
0.15840824
0.18251374
0.20482222
0.22512551
0.24335635
0.25954904
0.27380608
0.28627156
0.29711102
0.30649691
0.31459869
0.32157655
0
0
0
0
0.0023299378
0.013826196
0.033232935
0.05854055
0.087788885
0.11920412
0.15128555
0.18284462
0.21300489
0.24117474
0.26700423
0.290336
0.31115696
0.3295553
0.34568467
0.35973614
0.37191732
0.38243766
0.3914987
0.39928815
0
0
0
0.00055569651
0.0097201307
0.028717981
0.055467504
0.087788885
0.12359144
0.16101292
0.19850421
0.2348631
0.26922718
0.30103888
0.32999515
0.35599219
0.37907242
0.39937801
0.41711291
0.4325136
0.44582771
0.45729937
0.46715972
0.47562154
0
0
0
0.0045729566
0.020786828
0.046820163
0.080404201
0.11920412
0.16101292
0.20389256
0.24625625
0.28689688
0.32497281
0.3599654
0.39162168
0.41989311
0.44487805
0.46677206
0.48582801
0.50232579
0.51655067
0.52877884
0.53926839
0.5482545
0
0
0.00066021431
0.011490971
0.034248136
0.066765286
0.10660265
0.15128555
0.19850421
0.24625625
0.2929265
0.33731001
0.37859103
0.41629323
0.45021561
0.48036561
0.50689716
0.5300581
0.55014842
0.56748923
0.58240095
0.59518915
0.60613617
0.61549696
0
0
0.0035568716
0.020284739
0.049020824
0.087423507
0.13289808
0.18284462
0.2348631
0.28689688
0.33731001
0.38490508
0.42889567
0.46884964
0.50461861
0.53626568
0.56399935
0.58811816
0.60896725
0.62690666
0.6422895
0.65544819
0.66668676
0.67627741
0
8.6757196e-06
0.0080379822
0.030113974
0.064240125
0.1079162
0.15840824
0.21300489
0.26922718
0.32497281
0.37859103
0.42889567
0.47513148
0.51691095
0.55413782
0.58692963
0.61554783
0.64033969
0.66169342
0.68000573
0.69566014
0.70901358
0.72038948
0.73007508
0
0.00079741088
0.01345693
0.040324914
0.07925472
0.12760374
0.18251374
0.24117474
0.30103888
0.3599654
0.41629323
0.46884964
0.51691096
0.56013351
0.59847153
0.632095
0.6613161
0.68652863
0.70816163
0.72664638
0.74239464
0.75578587
0.76716091
0.77682014
0
0.0025326221
0.019318064
0.050435966
0.09360542
0.14605699
0.20482222
0.26700424
0.32999515
0.39162168
0.45021562
0.50461861
0.55413783
0.59847153
0.63762195
0.67180878
0.70139228
0.72681024
0.74853026
0.76701607
0.78270585
0.79599983
0.80725462
0.81678225
0
0.0048310067
0.025259386
0.060114128
0.10699516
0.16302083
0.22512551
0.290336
0.3559922
0.41989311
0.48036562
0.53626568
0.58692964
0.632095
0.67180879
0.70633713
0.73608524
0.76153216
0.78318166
0.80152794
0.81703386
0.83011894
0.8411543
0.8504624
0
0.0074104085
0.031030704
0.069147703
0.1192563
0.17837615
0.24335635
0.31115696
0.37907242
0.44487805
0.50689717
0.56399936
0.61554783
0.6613161
0.70139228
0.73608524
0.7658417
0.79117901
0.81263463
0.83073125
0.84595483
0.8587429
0.86948006
0.87849832
5.9876578e-05
0.01007157
0.03647096
0.07741923
0.13031924
0.19210431
0.25954904
0.3295553
0.39937801
0.46677207
0.5300581
0.58811816
0.64033969
0.68652863
0.72681024
0.76153216
0.79117901
0.81630329
0.83747361
0.85523912
0.87010741
0.88253288
0.89291275
0.90158796
0.00037895781
0.012680464
0.041487124
0.084881019
0.14018477
0.20425653
0.27380608
0.34568467
0.41711291
0.48582802
0.55014843
0.60896725
0.66169342
0.70816164
0.74853026
0.78318166
0.81263464
0.83747361
0.85829573
0.87567458
0.89013786
0.90215581
0.91213756
0.9204325
0.00087104311
0.015152534
0.046035895
0.091534456
0.14890119
0.21492903
0.28627157
0.35973614
0.43251361
0.50232579
0.56748924
0.62690666
0.68000574
0.72664638
0.76701607
0.80152794
0.83073125
0.85523912
0.87567458
0.8926336
0.90666248
0.9182463
0.92780541
0.93569728
0.0014518198
0.017439449
0.050108706
0.097413397
0.15654624
0.22424379
0.29711103
0.37191732
0.44582772
0.51655068
0.58240095
0.6422895
0.69566014
0.74239464
0.78270586
0.81703387
0.84595483
0.87010741
0.89013786
0.90666248
0.92024467
0.93138327
0.94050928
0.94798787
0.0020644832
0.019518452
0.053719964
0.10257144
0.16321362
0.23233443
0.30649691
0.38243766
0.45729937
0.52877885
0.59518915
0.6554482
0.70901359
0.75578588
0.79599983
0.83011895
0.85874291
0.88253288
0.90215582
0.9182463
0.93138328
0.94207835
0.95077245
0.95783813
0.0026722339
0.021384132
0.05689819
0.10707256
0.16900325
0.23933631
0.31459869
0.3914987
0.46715973
0.5392684
0.60613618
0.66668677
0.72038949
0.76716092
0.80725462
0.84115431
0.86948006
0.89291275
0.91213757
0.92780541
0.94050929
0.95077245
0.9590451
0.96570681
0.0032524863
0.02304227
0.059679594
0.11098455
0.17401468
0.24538005
0.32157656
0.39928816
0.47562155
0.54825451
0.61549697
0.67627742
0.73007509
0.77682015
0.81678225
0.85046241
0.87849832
0.90158796
0.9204325
0.93569728
0.94798787
0.95783813
0.96570681
0.97198006
0.0038498272
0.024656863
0.0044348295
0.026167442
0.0049978595
0.027567915
0.0055315999
0.028855154
0.0060308277
0.030028623
0.0064921605
0.031089973
0.0069137862
0.032042643
0.0072951944
0.032891472
0.0076369191
0.033642331
0.0079403011
0.034301803
0.0082072762
0.0348769
0.0084401918
0.035374818
0.0086416518
0.035802745
0.0088143894
0.036167705
0.0089611668
0.036476437
0.009084697
0.036735313
0.0091875866
0.03695028
0.009272296
0.037126824
0.0093411131
0.037269959
0.0093961391
0.037384225
0.0094392825
0.037473704
0.0094722606
0.037542033
0.0094966055
0.037592438
0.0095136736
0.037627758
0.009524657
0.037650478
0.009530597
0.037662763
0.0095323973
0.037666486
0.062353071
0.064826098
0.067096547
0.069165887
0.07103865
0.072721885
0.074224618
0.075557344
0.076731558
0.077759347
0.078653028
0.079424863
0.080086813
0.080650363
0.081126383
0.08152504
0.08185574
0.082127104
0.082346965
0.082522389
0.082659698
0.082764518
0.082841821
0.08289598
0.082930815
0.082949649
0.082955357
0.1147225
0.11816195
0.12130505
0.12415815
0.1267311
0.12903653
0.13108922
0.13290546
0.13450247
0.13589792
0.13710948
0.13815453
0.13904984
0.13981136
0.14045411
0.14099206
0.14143807
0.14180389
0.14210018
0.14233652
0.14252147
0.14266263
0.14276672
0.14283964
0.14288654
0.14291189
0.14291958
0.17878629
0.1831629
0.18715118
0.19076251
0.19401212
0.19691829
0.19950155
0.2017839
0.20378822
0.20553766
0.20705514
0.20836301
0.2094827
0.21043453
0.21123751
0.21190928
0.21246606
0.21292261
0.21329229
0.21358712
0.21381781
0.21399386
0.21412367
0.2142146
0.21427308
0.21430469
0.21431427
0.25112042
0.25637384
0.26115161
0.26547016
0.26935009
0.27281517
0.2758915
0.27860662
0.28098879
0.28306635
0.28486721
0.2864184
0.28774573
0.28887357
0.28982471
0.29062018
0.29127932
0.29181969
0.29225717
0.29260602
0.29287895
0.29308722
0.29324078
0.29334834
0.29341751
0.29345491
0.29346624
0.32819137
0.33423439
0.33972156
0.34467431
0.34911841
0.35308291
0.35659916
0.35969986
0.36241827
0.36478752
0.36684005
0.36860715
0.3701186
0.37140243
0.37248478
0.37338978
0.3741395
0.37475404
0.37525149
0.37564812
0.37595839
0.37619515
0.3763697
0.37649196
0.37657059
0.37661309
0.37662597
0.40666002
0.41338429
0.41948155
0.42497809
0.4299046
0.43429507
0.43818568
0.44161381
0.44461722
0.4472333
0.44949848
0.45144779
0.45311444
0.45452965
0.45572242
0.45671951
0.45754537
0.4582222
0.45877002
0.45920675
0.45954838
0.45980904
0.4600012
0.46013579
0.46022234
0.46026914
0.46028331
0.48361718
0.49089978
0.49749453
0.50343238
0.50874865
0.51348186
0.51767255
0.52136224
0.52459262
0.52740473
0.52983838
0.53193173
0.53372085
0.53523955
0.53651919
0.53758865
0.53847427
0.53919997
0.53978726
0.54025541
0.54062158
0.54090095
0.54110689
0.54125114
0.54134389
0.54139404
0.54140923
0.55673212
0.56444224
0.57141461
0.57768463
0.58329196
0.5882792
0.59269075
0.59657175
0.59996715
0.60292104
0.60547599
0.60767259
0.60954919
0.61114158
0.61248291
0.61360363
0.61453152
0.61529171
0.61590682
0.6163971
0.61678054
0.61707307
0.6172887
0.61743972
0.61753684
0.61758933
0.61760524
0.62431315
0.63231837
0.63954686
0.64603833
0.65183643
0.6569875
0.66153931
0.66554002
0.6690373
0.67207762
0.67470566
0.67696388
0.67889218
0.68052778
0.68190503
0.68305543
0.68400765
0.68478762
0.68541863
0.68592151
0.68631477
0.68661476
0.68683589
0.68699074
0.68709032
0.68714415
0.68716046
0.68529314
0.69346482
0.70083121
0.70743616
0.71332712
0.71855379
0.72316686
0.72721703
0.73075414
0.73382646
0.73648015
0.7387589
0.74070363
0.74235234
0.74374006
0.74489878
0.74585762
0.7466428
0.74727792
0.74778398
0.74817968
0.7484815
0.74870395
0.74885974
0.74895991
0.74901405
0.74903046
0.73916047
0.74737813
0.75477138
0.76138817
0.76727956
0.77249832
0.77709774
0.78113063
0.78464848
0.78770085
0.79033485
0.79259484
0.79452219
0.79615517
0.79752892
0.79867547
0.79962388
0.80040029
0.80102814
0.80152832
0.80191935
0.80221757
0.80243736
0.80259126
0.80269021
0.8027437
0.80275991
0.78585802
0.79401258
0.80133179
0.80786772
0.81367493
0.8188091
0.82332586
0.82727978
0.83072362
0.8337078
0.83627991
0.83848449
0.84036288
0.84195312
0.84329
0.84440516
0.84532714
0.84608162
0.84669153
0.84717729
0.84755697
0.84784649
0.84805983
0.84820921
0.84830525
0.84835716
0.84837289
0.82567049
0.83366641
0.84082278
0.84719584
0.85284368
0.85782481
0.86219701
0.8660164
0.86933677
0.872209
0.87468083
0.87679659
0.87859714
0.8801199
0.88139891
0.88246498
0.88334582
0.88406625
0.88464838
0.88511185
0.885474
0.8857501
0.88595351
0.88609592
0.88618748
0.88623696
0.88625195
0.85911519
0.86687167
0.8737896
0.87992954
0.88535316
0.89012183
0.89429545
0.89793158
0.9010848
0.90380632
0.9061437
0.90814075
0.90983758
0.91127063
0.91247284
0.91347387
0.91430024
0.91497564
0.91552106
0.91595509
0.9162941
0.91655248
0.9167428
0.91687603
0.91696166
0.91700795
0.91702197
0.88684649
0.89429788
0.9009154
0.9067641
0.9119094
0.91641561
0.92034481
0.92375598
0.92670449
0.9292417
0.93141485
0.93326705
0.93483739
0.93616108
0.93726972
0.93819151
0.93895157
0.93957213
0.94007285
0.94047104
0.94078189
0.94101871
0.94119309
0.94131513
0.94139356
0.94143595
0.94144879
0.90957864
0.91667416
0.92294276
0.92845418
0.93327776
0.93748094
0.94112809
0.94427974
0.94699206
0.94931657
0.95130014
0.95298506
0.95440926
0.95560656
0.956607
0.95743716
0.95812048
0.95867758
0.95912656
0.95948326
0.9597615
0.95997335
0.96012927
0.96023835
0.96030845
0.96034632
0.96035779
0.92802817
0.93473117
0.94061522
0.94575492
0.95022374
0.95409245
0.95742795
0.96029247
0.9627431
0.96483164
0.96660461
0.96810348
0.96936496
0.97042138
0.97130111
0.97202895
0.97262654
0.9731127
0.97350381
0.97381409
0.97405583
0.97423973
0.97437498
0.97446955
0.9745303
0.97456312
0.97457307
0.94287438
0.94916122
0.95463705
0.95938147
0.96347226
0.96698377
0.96998565
0.97254207
0.97471128
0.9765455
0.97809104
0.9793886
0.98047373
0.98137724
0.98212579
0.9827423
0.98324651
0.98365536
0.98398335
0.98424296
0.98444486
0.98459822
0.98471089
0.98478962
0.98484016
0.98486745
0.98487572
0.9547352
0.96059384
0.96564858
0.96998406
0.97368256
0.97682221
0.97947567
0.98170932
0.98358282
0.98514905
0.9864543
0.98753869
0.98843666
0.98917759
0.98978641
0.99028419
0.99068869
0.99101487
0.99127534
0.9914807
0.99163991
0.99176055
0.99184902
0.99191074
0.99195033
0.9919717
0.99197817
0.96415499
0.96958346
0.97421369
0.9781354
0.98143546
0.98419594
0.98649276
0.9883948
0.98996339
0.99125238
0.99230827
0.9931708
0.99387349
0.99444439
0.99490681
0.99527996
0.99557965
0.99581884
0.99600816
0.99615633
0.9962705
0.9963566
0.9964195
0.99646327
0.99649129
0.9965064
0.99651097
0.97160118
0.97660588
0.98081625
0.98432699
0.98722955
0.9896101
0.99154802
0.9931149
0.9943741
0.99538067
0.99618166
0.99681665
0.99731849
0.99771407
0.99802517
0.99826925
0.99846021
0.99860903
0.99872435
0.99881297
0.99888022
0.9989303
0.99896654
0.99899158
0.99900752
0.99901609
0.99901869
0.97746671
0.9820608
0.98586256
0.98897149
0.99148358
0.99348913
0.9950711
0.99630405
0.99725362
0.99797637
0.99852018
0.99892479
0.9992226
0.99943955
0.99959609
0.99970805
0.99978749
0.99984346
0.99988267
0.99990997
0.99992885
0.99994179
0.99995051
0.99995621
0.99995969
0.99996151
0.99996206
0.0095323956
0.037666483
0.0095323956
0.037666483
0.0095323956
0.037666483
0.0095323956
0.037666483
0.0095323956
0.037666483
0.0095323956
0.037666483
0.0095323956
0.037666483
0.0095323956
0.037666483
0.0095323956
0.037666483
0.0095323956
0.037666483
0.0095323956
0.037666483
0.0095323956
0.037666483
0.0095323956
0.037666483
0.0095323956
0.037666483
0.0095323956
0.037666483
0.0095323956
0.037666483
0.0095323956
0.037666483
0.0095323956
0.037666483
0.0095323956
0.037666483
0.0095323956
0.037666483
0.0095323956
0.037666483
0.0095323956
0.037666483
0.0095323956
0.037666483
0.0095323956
0.037666483
0.0095323956
0.037666483
0.0095323956
0.037666483
0.0095323956
0.037666483
0.0095323956
0.037666483
0.0095323956
0.037666483
0.0095323956
0.037666483
0.0095323956
0.037666483
0.0095323956
0.037666483
0.0095323956
0.037666483
0.0095323973
0.037666486
0.082955353
0.082955353
0.082955353
0.082955353
0.082955353
0.082955353
0.082955353
0.082955353
0.082955353
0.082955353
0.082955353
0.082955353
0.082955353
0.082955353
0.082955353
0.082955353
0.082955353
0.082955353
0.082955353
0.082955353
0.082955353
0.082955353
0.082955353
0.082955353
0.082955353
0.082955353
0.082955353
0.082955353
0.082955353
0.082955353
0.082955353
0.082955353
0.082955353
0.082955357
0.14291957
0.14291957
0.14291957
0.14291957
0.14291957
0.14291957
0.14291957
0.14291957
0.14291957
0.14291957
0.14291957
0.14291957
0.14291957
0.14291957
0.14291957
0.14291957
0.14291957
0.14291957
0.14291957
0.14291957
0.14291957
0.14291957
0.14291957
0.14291957
0.14291957
0.14291957
0.14291957
0.14291957
0.14291957
0.14291957
0.14291957
0.14291957
0.14291957
0.14291958
0.21431427
0.21431427
0.21431427
0.21431427
0.21431427
0.21431427
0.21431427
0.21431427
0.21431427
0.21431427
0.21431427
0.21431427
0.21431427
0.21431427
0.21431427
0.21431427
0.21431427
0.21431427
0.21431427
0.21431427
0.21431427
0.21431427
0.21431427
0.21431427
0.21431427
0.21431427
0.21431427
0.21431427
0.21431427
0.21431427
0.21431427
0.21431427
0.21431427
0.21431427
0.29346624
0.29346624
0.29346624
0.29346624
0.29346624
0.29346624
0.29346624
0.29346624
0.29346624
0.29346624
0.29346624
0.29346624
0.29346624
0.29346624
0.29346624
0.29346624
0.29346624
0.29346624
0.29346624
0.29346624
0.29346624
0.29346624
0.29346624
0.29346624
0.29346624
0.29346624
0.29346624
0.29346624
0.29346624
0.29346624
0.29346624
0.29346624
0.29346624
0.29346624
0.37662597
0.37662597
0.37662597
0.37662597
0.37662597
0.37662597
0.37662597
0.37662597
0.37662597
0.37662597
0.37662597
0.37662597
0.37662597
0.37662597
0.37662597
0.37662597
0.37662597
0.37662597
0.37662597
0.37662597
0.37662597
0.37662597
0.37662597
0.37662597
0.37662597
0.37662597
0.37662597
0.37662597
0.37662597
0.37662597
0.37662597
0.37662597
0.37662597
0.37662597
0.46028331
0.46028331
0.46028331
0.46028331
0.46028331
0.46028331
0.46028331
0.46028331
0.46028331
0.46028331
0.46028331
0.46028331
0.46028331
0.46028331
0.46028331
0.46028331
0.46028331
0.46028331
0.46028331
0.46028331
0.46028331
0.46028331
0.46028331
0.46028331
0.46028331
0.46028331
0.46028331
0.46028331
0.46028331
0.46028331
0.46028331
0.46028331
0.46028331
0.46028331
0.54140923
0.54140923
0.54140923
0.54140923
0.54140923
0.54140923
0.54140923
0.54140923
0.54140923
0.54140923
0.54140923
0.54140923
0.54140923
0.54140923
0.54140923
0.54140923
0.54140923
0.54140923
0.54140923
0.54140923
0.54140923
0.54140923
0.54140923
0.54140923
0.54140923
0.54140923
0.54140923
0.54140923
0.54140923
0.54140923
0.54140923
0.54140923
0.54140923
0.54140923
0.61760524
0.61760524
0.61760524
0.61760524
0.61760524
0.61760524
0.61760524
0.61760524
0.61760524
0.61760524
0.61760524
0.61760524
0.61760524
0.61760524
0.61760524
0.61760524
0.61760524
0.61760524
0.61760524
0.61760524
0.61760524
0.61760524
0.61760524
0.61760524
0.61760524
0.61760524
0.61760524
0.61760524
0.61760524
0.61760524
0.61760524
0.61760524
0.61760524
0.61760524
0.68716046
0.68716046
0.68716046
0.68716046
0.68716046
0.68716046
0.68716046
0.68716046
0.68716046
0.68716046
0.68716046
0.68716046
0.68716046
0.68716046
0.68716046
0.68716046
0.68716046
0.68716046
0.68716046
0.68716046
0.68716046
0.68716046
0.68716046
0.68716046
0.68716046
0.68716046
0.68716046
0.68716046
0.68716046
0.68716046
0.68716046
0.68716046
0.68716046
0.68716046
0.74903046
0.74903046
0.74903046
0.74903046
0.74903046
0.74903046
0.74903046
0.74903046
0.74903046
0.74903046
0.74903046
0.74903046
0.74903046
0.74903046
0.74903046
0.74903046
0.74903046
0.74903046
0.74903046
0.74903046
0.74903046
0.74903046
0.74903046
0.74903046
0.74903046
0.74903046
0.74903046
0.74903046
0.74903046
0.74903046
0.74903046
0.74903046
0.74903046
0.74903046
0.80275991
0.80275991
0.80275991
0.80275991
0.80275991
0.80275991
0.80275991
0.80275991
0.80275991
0.80275991
0.80275991
0.80275991
0.80275991
0.80275991
0.80275991
0.80275991
0.80275991
0.80275991
0.80275991
0.80275991
0.80275991
0.80275991
0.80275991
0.80275991
0.80275991
0.80275991
0.80275991
0.80275991
0.80275991
0.80275991
0.80275991
0.80275991
0.80275991
0.80275991
0.84837289
0.84837289
0.84837289
0.84837289
0.84837289
0.84837289
0.84837289
0.84837289
0.84837289
0.84837289
0.84837289
0.84837289
0.84837289
0.84837289
0.84837289
0.84837289
0.84837289
0.84837289
0.84837289
0.84837289
0.84837289
0.84837289
0.84837289
0.84837289
0.84837289
0.84837289
0.84837289
0.84837289
0.84837289
0.84837289
0.84837289
0.84837289
0.84837289
0.84837289
0.88625195
0.88625195
0.88625195
0.88625195
0.88625195
0.88625195
0.88625195
0.88625195
0.88625195
0.88625195
0.88625195
0.88625195
0.88625195
0.88625195
0.88625195
0.88625195
0.88625195
0.88625195
0.88625195
0.88625195
0.88625195
0.88625195
0.88625195
0.88625195
0.88625195
0.88625195
0.88625195
0.88625195
0.88625195
0.88625195
0.88625195
0.88625195
0.88625195
0.88625195
0.91702197
0.91702197
0.91702197
0.91702197
0.91702197
0.91702197
0.91702197
0.91702197
0.91702197
0.91702197
0.91702197
0.91702197
0.91702197
0.91702197
0.91702197
0.91702197
0.91702197
0.91702197
0.91702197
0.91702197
0.91702197
0.91702197
0.91702197
0.91702197
0.91702197
0.91702197
0.91702197
0.91702197
0.91702197
0.91702197
0.91702197
0.91702197
0.91702197
0.91702197
0.94144879
0.94144879
0.94144879
0.94144879
0.94144879
0.94144879
0.94144879
0.94144879
0.94144879
0.94144879
0.94144879
0.94144879
0.94144879
0.94144879
0.94144879
0.94144879
0.94144879
0.94144879
0.94144879
0.94144879
0.94144879
0.94144879
0.94144879
0.94144879
0.94144879
0.94144879
0.94144879
0.94144879
0.94144879
0.94144879
0.94144879
0.94144879
0.94144879
0.94144879
0.96035779
0.96035779
0.96035779
0.96035779
0.96035779
0.96035779
0.96035779
0.96035779
0.96035779
0.96035779
0.96035779
0.96035779
0.96035779
0.96035779
0.96035779
0.96035779
0.96035779
0.96035779
0.96035779
0.96035779
0.96035779
0.96035779
0.96035779
0.96035779
0.96035779
0.96035779
0.96035779
0.96035779
0.96035779
0.96035779
0.96035779
0.96035779
0.96035779
0.96035779
0.97457307
0.97457307
0.97457307
0.97457307
0.97457307
0.97457307
0.97457307
0.97457307
0.97457307
0.97457307
0.97457307
0.97457307
0.97457307
0.97457307
0.97457307
0.97457307
0.97457307
0.97457307
0.97457307
0.97457307
0.97457307
0.97457307
0.97457307
0.97457307
0.97457307
0.97457307
0.97457307
0.97457307
0.97457307
0.97457307
0.97457307
0.97457307
0.97457307
0.97457307
0.98487572
0.98487572
0.98487572
0.98487572
0.98487572
0.98487572
0.98487572
0.98487572
0.98487572
0.98487572
0.98487572
0.98487572
0.98487572
0.98487572
0.98487572
0.98487572
0.98487572
0.98487572
0.98487572
0.98487572
0.98487572
0.98487572
0.98487572
0.98487572
0.98487572
0.98487572
0.98487572
0.98487572
0.98487572
0.98487572
0.98487572
0.98487572
0.98487572
0.98487572
0.99197817
0.99197817
0.99197817
0.99197817
0.99197817
0.99197817
0.99197817
0.99197817
0.99197817
0.99197817
0.99197817
0.99197817
0.99197817
0.99197817
0.99197817
0.99197817
0.99197817
0.99197817
0.99197817
0.99197817
0.99197817
0.99197817
0.99197817
0.99197817
0.99197817
0.99197817
0.99197817
0.99197817
0.99197817
0.99197817
0.99197817
0.99197817
0.99197817
0.99197817
0.99651097
0.99651097
0.99651097
0.99651097
0.99651097
0.99651097
0.99651097
0.99651097
0.99651097
0.99651097
0.99651097
0.99651097
0.99651097
0.99651097
0.99651097
0.99651097
0.99651097
0.99651097
0.99651097
0.99651097
0.99651097
0.99651097
0.99651097
0.99651097
0.99651097
0.99651097
0.99651097
0.99651097
0.99651097
0.99651097
0.99651097
0.99651097
0.99651097
0.99651097
0.99901869
0.99901869
0.99901869
0.99901869
0.99901869
0.99901869
0.99901869
0.99901869
0.99901869
0.99901869
0.99901869
0.99901869
0.99901869
0.99901869
0.99901869
0.99901869
0.99901869
0.99901869
0.99901869
0.99901869
0.99901869
0.99901869
0.99901869
0.99901869
0.99901869
0.99901869
0.99901869
0.99901869
0.99901869
0.99901869
0.99901869
0.99901869
0.99901869
0.99901869
0.99996206
0.99996206
0.99996206
0.99996206
0.99996206
0.99996206
0.99996206
0.99996206
0.99996206
0.99996206
0.99996206
0.99996206
0.99996206
0.99996206
0.99996206
0.99996206
0.99996206
0.99996206
0.99996206
0.99996206
0.99996206
0.99996206
0.99996206
0.99996206
0.99996206
0.99996206
0.99996206
0.99996206
0.99996206
0.99996206
0.99996206
0.99996206
0.99996206
0.99996206
0.009530597
0.037662763
0.009524657
0.037650478
0.0095136736
0.037627758
0.0094966055
0.037592438
0.0094722606
0.037542033
0.0094392824
0.037473704
0.009396139
0.037384225
0.009341113
0.037269959
0.0092722959
0.037126824
0.0091875865
0.03695028
0.0090846968
0.036735313
0.0089611666
0.036476436
0.0088143892
0.036167704
0.0086416514
0.035802744
0.0084401914
0.035374817
0.0082072757
0.034876899
0.0079403004
0.034301802
0.0076369184
0.033642329
0.0072951936
0.03289147
0.0069137852
0.032042641
0.0064921593
0.03108997
0.0060308264
0.03002862
0.0055315984
0.028855151
0.0049978579
0.027567911
0.0044348277
0.026167438
0.0038498253
0.024656858
0.0032524855
0.023042266
0.082949649
0.082930815
0.08289598
0.082841821
0.082764517
0.082659697
0.082522388
0.082346965
0.082127104
0.08185574
0.081525039
0.081126382
0.080650362
0.080086812
0.079424861
0.078653027
0.077759345
0.076731556
0.075557341
0.074224614
0.07272188
0.071038645
0.069165882
0.067096541
0.064826091
0.062353063
0.059679586
0.14291189
0.14288654
0.14283964
0.14276672
0.14266263
0.14252147
0.14233652
0.14210018
0.14180389
0.14143807
0.14099206
0.14045411
0.13981136
0.13904984
0.13815453
0.13710948
0.13589791
0.13450247
0.13290546
0.13108922
0.12903652
0.12673109
0.12415815
0.12130504
0.11816194
0.11472249
0.11098454
0.21430469
0.21427308
0.2142146
0.21412367
0.21399386
0.2138178
0.21358712
0.21329229
0.21292261
0.21246606
0.21190928
0.21123751
0.21043452
0.2094827
0.208363
0.20705514
0.20553765
0.20378822
0.2017839
0.19950154
0.19691829
0.19401211
0.1907625
0.18715117
0.18316288
0.17878627
0.17401467
0.29345491
0.29341751
0.29334834
0.29324078
0.29308722
0.29287895
0.29260602
0.29225717
0.29181969
0.29127932
0.29062018
0.2898247
0.28887357
0.28774572
0.28641839
0.28486721
0.28306635
0.28098878
0.27860661
0.27589149
0.27281516
0.26935008
0.26547015
0.2611516
0.25637382
0.2511204
0.24538003
0.37661309
0.37657059
0.37649196
0.3763697
0.37619515
0.37595839
0.37564812
0.37525149
0.37475403
0.3741395
0.37338978
0.37248478
0.37140243
0.37011859
0.36860715
0.36684005
0.36478752
0.36241827
0.35969986
0.35659916
0.3530829
0.34911839
0.34467429
0.33972155
0.33423437
0.32819135
0.32157653
0.46026914
0.46022234
0.46013579
0.4600012
0.45980904
0.45954838
0.45920675
0.45877002
0.4582222
0.45754537
0.45671951
0.45572242
0.45452964
0.45311444
0.45144778
0.44949848
0.44723329
0.44461721
0.4416138
0.43818567
0.43429506
0.42990459
0.42497808
0.41948154
0.41338427
0.40666
0.39928812
0.54139404
0.54134389
0.54125114
0.54110689
0.54090095
0.54062158
0.54025541
0.53978726
0.53919997
0.53847427
0.53758865
0.53651919
0.53523954
0.53372085
0.53193172
0.52983838
0.52740472
0.52459261
0.52136224
0.51767254
0.51348185
0.50874864
0.50343236
0.49749451
0.49089975
0.48361716
0.47562151
0.61758933
0.61753684
0.61743972
0.6172887
0.61707307
0.61678054
0.6163971
0.61590682
0.61529171
0.61453152
0.61360363
0.61248291
0.61114158
0.60954919
0.60767259
0.60547598
0.60292104
0.59996715
0.59657174
0.59269074
0.58827919
0.58329195
0.57768462
0.57141459
0.56444222
0.55673209
0.54825447
0.68714415
0.68709032
0.68699074
0.68683589
0.68661476
0.68631477
0.68592151
0.68541863
0.68478761
0.68400765
0.68305543
0.68190503
0.68052778
0.67889218
0.67696387
0.67470566
0.67207762
0.66903729
0.66554001
0.6615393
0.65698749
0.65183642
0.64603831
0.63954684
0.63231834
0.62431312
0.61549693
0.74901405
0.74895991
0.74885974
0.74870395
0.7484815
0.74817968
0.74778398
0.74727792
0.7466428
0.74585761
0.74489878
0.74374005
0.74235234
0.74070362
0.73875889
0.73648014
0.73382645
0.73075414
0.72721702
0.72316685
0.71855377
0.71332711
0.70743614
0.70083119
0.6934648
0.68529311
0.67627738
0.8027437
0.80269021
0.80259126
0.80243736
0.80221757
0.80191935
0.80152832
0.80102814
0.80040029
0.79962388
0.79867547
0.79752892
0.79615517
0.79452219
0.79259484
0.79033485
0.78770084
0.78464848
0.78113062
0.77709773
0.77249831
0.76727954
0.76138815
0.75477136
0.74737811
0.73916044
0.73007505
0.84835716
0.84830525
0.84820921
0.84805983
0.84784649
0.84755697
0.84717729
0.84669153
0.84608162
0.84532714
0.84440516
0.84329
0.84195312
0.84036288
0.83848449
0.8362799
0.83370779
0.83072362
0.82727977
0.82332585
0.81880909
0.81367491
0.8078677
0.80133177
0.79401256
0.785858
0.77682011
0.88623696
0.88618748
0.88609592
0.88595351
0.8857501
0.885474
0.88511185
0.88464838
0.88406625
0.88334582
0.88246498
0.88139891
0.88011989
0.87859713
0.87679658
0.87468083
0.872209
0.86933676
0.8660164
0.862197
0.85782479
0.85284366
0.84719582
0.84082276
0.83366639
0.82567046
0.81678222
0.91700795
0.91696166
0.91687603
0.9167428
0.91655248
0.9162941
0.91595509
0.91552106
0.91497564
0.91430024
0.91347387
0.91247284
0.91127062
0.90983758
0.90814075
0.90614369
0.90380631
0.90108479
0.89793157
0.89429544
0.89012182
0.88535315
0.87992952
0.87378958
0.86687165
0.85911516
0.85046237
0.94143595
0.94139356
0.94131513
0.94119309
0.94101871
0.94078189
0.94047104
0.94007285
0.93957212
0.93895156
0.93819151
0.93726971
0.93616108
0.93483739
0.93326705
0.93141484
0.92924169
0.92670448
0.92375598
0.9203448
0.9164156
0.91190939
0.90676408
0.90091538
0.89429786
0.88684647
0.87849829
0.96034632
0.96030845
0.96023835
0.96012927
0.95997335
0.9597615
0.95948326
0.95912656
0.95867758
0.95812048
0.95743716
0.956607
0.95560656
0.95440926
0.95298506
0.95130014
0.94931656
0.94699205
0.94427974
0.94112808
0.93748093
0.93327775
0.92845417
0.92294274
0.91667414
0.90957862
0.90158793
0.97456312
0.9745303
0.97446955
0.97437498
0.97423973
0.97405583
0.97381409
0.97350381
0.9731127
0.97262654
0.97202895
0.97130111
0.97042138
0.96936496
0.96810348
0.96660461
0.96483164
0.9627431
0.96029246
0.95742795
0.95409245
0.95022373
0.94575491
0.94061521
0.93473115
0.92802815
0.92043248
0.98486745
0.98484016
0.98478962
0.98471089
0.98459822
0.98444486
0.98424296
0.98398335
0.98365536
0.98324651
0.9827423
0.98212578
0.98137724
0.98047373
0.9793886
0.97809103
0.9765455
0.97471128
0.97254207
0.96998564
0.96698376
0.96347225
0.95938145
0.95463704
0.9491612
0.94287436
0.93569725
0.9919717
0.99195033
0.99191074
0.99184902
0.99176055
0.99163991
0.9914807
0.99127534
0.99101487
0.99068869
0.99028419
0.98978641
0.98917759
0.98843666
0.98753869
0.9864543
0.98514905
0.98358282
0.98170931
0.97947566
0.9768222
0.97368255
0.96998405
0.96564856
0.96059383
0.95473518
0.94798785
0.9965064
0.99649129
0.99646327
0.9964195
0.9963566
0.9962705
0.99615633
0.99600816
0.99581884
0.99557965
0.99527996
0.99490681
0.99444439
0.99387348
0.99317079
0.99230827
0.99125237
0.98996339
0.98839479
0.98649276
0.98419593
0.98143545
0.97813539
0.97421368
0.96958344
0.96415497
0.95783811
0.99901609
0.99900752
0.99899158
0.99896654
0.9989303
0.99888022
0.99881297
0.99872435
0.99860903
0.99846021
0.99826925
0.99802517
0.99771407
0.99731849
0.99681665
0.99618166
0.99538067
0.9943741
0.9931149
0.99154801
0.9896101
0.98722954
0.98432698
0.98081624
0.97660586
0.97160116
0.96570679
0.99996151
0.99995969
0.99995621
0.99995051
0.99994179
0.99992885
0.99990997
0.99988267
0.99984346
0.99978749
0.99970805
0.99959609
0.99943955
0.9992226
0.99892479
0.99852018
0.99797637
0.99725361
0.99630405
0.99507109
0.99348912
0.99148358
0.98897149
0.98586255
0.98206078
0.9774667
0.97198004
0.0026722332
0.021384129
0.0020644825
0.019518448
0.0014518192
0.017439446
0.00087104263
0.015152531
0.00037895747
0.012680461
5.987644e-05
0.010071567
0
0.0074104061
0