/*--------------------------------*- C++ -*----------------------------------*\
  =========                 |
  \\      /  F ield         | OpenFOAM: The Open Source CFD Toolbox
   \\    /   O peration     | Website:  https://openfoam.org
    \\  /    A nd           | Version:  8
     \\/     M anipulation  |
\*---------------------------------------------------------------------------*/
FoamFile
{
    version     2.0;
    format      ascii;
    class       volVectorField;
    location    "10";
    object      vorticity;
}
// * * * * * * * * * * * * * * * * * * * * * * * * * * * * * * * * * * * * * //

dimensions      [0 0 -1 0 0 0 0];

internalField   nonuniform List<vector> 
18474
(
(0 0 -0.031246722)
(0 0 -0.053607704)
(0 0 -0.0592351)
(0 0 -0.071695992)
(0 0 -0.078159602)
(0 0 -0.08652971)
(0 0 -0.092151406)
(0 0 -0.097827009)
(0 0 -0.10184131)
(0 0 -0.10516088)
(0 0 -0.10721894)
(0 0 -0.10838338)
(0 0 -0.1085677)
(3.4453643e-22 7.0004274e-22 -0.10794014)
(3.8910246e-22 -1.7124926e-21 -0.10655175)
(-7.8318953e-22 -6.7177719e-19 -0.10453784)
(-7.8238194e-22 1.4621297e-18 -0.10201557)
(-3.5611098e-22 -7.9679329e-19 -0.099117551)
(1.2686401e-21 8.2582539e-24 -0.095952635)
(-4.1439897e-21 -2.5402436e-21 -0.092623585)
(1.3765005e-21 2.1024944e-18 -0.089231399)
(1.5655973e-20 -2.3106716e-18 -0.085842827)
(-8.1157667e-21 -2.5530164e-18 -0.082515105)
(0 0 -0.034217015)
(0 0 -0.058042165)
(0 0 -0.065389038)
(0 0 -0.07930502)
(0 0 -0.087422378)
(0 0 -0.097248754)
(0 0 -0.10439905)
(0 0 -0.11144796)
(0 1.130758e-22 -0.11680703)
(0 -1.1925431e-22 -0.12137493)
(0 -5.4036162e-22 -0.12465904)
(-1.0653411e-21 -5.0084925e-19 -0.12692602)
(-2.5880692e-23 5.3818293e-19 -0.12808769)
(3.9506227e-22 -1.154369e-18 -0.12829751)
(2.0423848e-21 1.2464081e-18 -0.12763893)
(-2.8211927e-21 -1.5273252e-21 -0.12625901)
(1.7538073e-21 2.8354762e-23 -0.12428737)
(0 1.6073807e-21 -0.12185644)
(6.864488e-21 -2.1914254e-21 -0.11909262)
(-6.0023499e-22 1.3804756e-23 -0.11611297)
(-1.0218384e-20 4.2118044e-18 -0.11300252)
(-1.939817e-20 -4.6407785e-18 -0.10985178)
(2.455821e-20 1.0660534e-20 -0.10673926)
(0 0 -0.036907077)
(0 0 -0.061191504)
(0 0 -0.069891117)
(0 0 -0.084771705)
(0 0 -0.094128612)
(0 0 -0.10499908)
(0 4.9156445e-23 -0.11331014)
(-4.9176173e-23 2.5449366e-20 -0.12142028)
(8.3778319e-22 1.8516074e-19 -0.12794534)
(5.162779e-23 -2.2366153e-19 -0.13355764)
(-4.6690273e-21 -9.516509e-19 -0.13783241)
(1.1636687e-21 1.0140011e-18 -0.14098503)
(9.7091852e-22 1.3374944e-21 -0.14297806)
(-6.9661345e-21 -2.3323793e-18 -0.14393923)
(3.4164283e-21 1.3519668e-22 -0.1439684)
(1.0275609e-20 2.7272781e-18 -0.1432077)
(-8.3186534e-21 3.8111391e-21 -0.14179666)
(-5.6216007e-21 -3.2394527e-18 -0.13987269)
(5.0088759e-21 3.0426213e-22 -0.13756236)
(2.4371603e-20 3.8834395e-18 -0.13497465)
(-2.2010773e-20 -6.3780074e-21 -0.13223335)
(-4.139801e-20 2.2646156e-21 -0.12941218)
(4.9880559e-20 -2.1736344e-21 -0.12657866)
(0 0 -0.039031946)
(0 0 -0.062944684)
(0 0 -0.072590582)
(0 0 -0.08791188)
(0 0 -0.098054306)
(-5.3686885e-23 0 -0.10945728)
(2.9476594e-22 9.8702137e-20 -0.11855247)
(-1.7263269e-21 -5.1498885e-19 -0.1272801)
(6.3879735e-21 1.2968605e-18 -0.13448707)
(-4.2419552e-21 -9.1197393e-19 -0.14064981)
(-1.1102322e-21 5.5409242e-22 -0.14551082)
(8.4713784e-21 2.0577312e-18 -0.14916349)
(-1.0920666e-20 -2.2054678e-18 -0.15163834)
(4.9423551e-21 7.4059e-23 -0.15302465)
(-1.6177894e-22 -1.8823699e-24 -0.15344757)
(2.0913593e-20 5.5486999e-18 -0.15304627)
(-2.4496658e-20 -6.0329783e-18 -0.15197441)
(7.9504296e-21 -1.8210222e-21 -0.15035483)
(-1.0499797e-20 2.025308e-21 -0.14832286)
(5.9420298e-20 7.8956744e-18 -0.14599632)
(-6.8877847e-20 -8.6744502e-18 -0.14348317)
(-1.6888801e-20 -7.0024891e-21 -0.14087583)
(-2.9092382e-20 -1.0557945e-17 -0.13824817)
(0 0 -0.0404379)
(0 0 -0.063520794)
(0 0 -0.073974371)
(0 0 -0.089397926)
(0 9.0868513e-23 -0.100133)
(-1.1663782e-21 -1.949423e-19 -0.11175433)
(1.2091688e-21 2.0152146e-19 -0.12131587)
(-1.1169805e-21 2.6559917e-22 -0.13019648)
(1.2948398e-21 -3.1929869e-22 -0.13769774)
(1.1033912e-21 6.1232285e-22 -0.14397779)
(1.3869445e-20 1.9765445e-18 -0.14898515)
(-1.6178366e-20 -2.1082106e-18 -0.15268656)
(-1.7897888e-20 -2.2573192e-18 -0.15519864)
(1.9253689e-20 2.4250367e-18 -0.15655752)
(0 5.2015074e-21 -0.15694376)
(-4.493826e-20 -5.6765984e-18 -0.15648764)
(9.7205918e-20 1.2349504e-17 -0.15535835)
(-8.0511288e-22 -6.6140615e-21 -0.15367718)
(-5.6814558e-20 -7.3650063e-18 -0.15158613)
(-5.9933053e-20 -8.0768581e-18 -0.14920276)
(1.3033799e-19 1.7773215e-17 -0.1466358)
(-7.1000734e-20 -9.7977661e-18 -0.14398623)
(7.4741325e-20 1.0797433e-17 -0.14131608)
(0 0 -0.040936066)
(0 0 -0.062806979)
(0 0 -0.073973525)
(-8.8195583e-23 -4.441705e-23 -0.089233967)
(1.2265262e-21 1.9522774e-19 -0.10042596)
(-3.6228999e-21 -6.0293024e-19 -0.11191358)
(-3.9716331e-21 -4.1648895e-19 -0.12165554)
(7.4461938e-21 8.6772352e-19 -0.13034146)
(-8.1817005e-22 9.8550224e-23 -0.13777748)
(-1.1184028e-21 -1.4328922e-22 -0.14376794)
(2.2872711e-20 2.0332702e-18 -0.14850899)
(-4.0571852e-20 -4.3346429e-18 -0.15181699)
(2.1181196e-20 2.3182884e-18 -0.15392533)
(-5.9039114e-20 -4.9899074e-18 -0.15482627)
(5.5260399e-20 5.3902238e-18 -0.1547546)
(-2.3466582e-21 4.1839396e-21 -0.15383183)
(-4.2555981e-20 -6.3583824e-18 -0.15224654)
(6.495368e-20 6.9402647e-18 -0.15013109)
(-3.681925e-20 -1.660551e-21 -0.1476293)
(3.3616646e-20 1.1596177e-21 -0.14485247)
(1.5029472e-20 8.2962021e-21 -0.14193251)
(7.4727108e-21 -7.8029001e-21 -0.13895407)
(-6.017797e-20 -2.3045302e-21 -0.13598246)
(0 0 -0.040460316)
(0 0 -0.06060768)
(4.0651372e-23 0 -0.072178647)
(-4.3339841e-23 1.7986493e-24 -0.086885408)
(3.2385882e-21 4.0466605e-19 -0.098198604)
(-1.0299294e-20 -1.248795e-18 -0.10914032)
(1.5460964e-20 1.724274e-18 -0.11872975)
(-1.0220478e-20 -8.9858583e-19 -0.12684207)
(1.8364176e-21 1.0440949e-21 -0.13384192)
(2.3681751e-20 1.9847167e-18 -0.13916905)
(-2.5265759e-20 -2.1065969e-18 -0.14328672)
(5.8547041e-20 4.4944029e-18 -0.14585276)
(-1.2250462e-19 -9.6213847e-18 -0.147231)
(6.5539852e-20 5.1716329e-18 -0.14736873)
(-2.3819486e-21 5.4566928e-22 -0.14655571)
(6.9312444e-20 6.0581276e-18 -0.14489685)
(-7.4162476e-20 -6.597528e-18 -0.14260605)
(0 1.0239711e-20 -0.13981479)
(0 -5.6331754e-21 -0.13668177)
(-1.971756e-20 -7.2191011e-21 -0.13333299)
(-8.4644068e-20 -9.4840003e-18 -0.12987395)
(2.1748666e-20 4.0935798e-21 -0.12641021)
(2.6540718e-19 2.3090639e-17 -0.12301555)
(0 0 -0.039175242)
(0 0 -0.057035593)
(0 -9.2755782e-23 -0.068532975)
(0 3.3987719e-22 -0.082140695)
(-7.8708526e-21 -8.4324962e-19 -0.093068376)
(-8.1609658e-22 -2.8302515e-22 -0.10302384)
(9.2259444e-21 8.9940869e-19 -0.11201686)
(0 -1.5448242e-21 -0.1191776)
(0 1.1869238e-22 -0.12540553)
(0 1.2444252e-21 -0.12976687)
(-3.789465e-21 -4.8921893e-23 -0.1330082)
(4.5941891e-21 -1.6098505e-21 -0.13462482)
(8.1495689e-20 5.0128592e-18 -0.13511322)
(-8.9252999e-20 -5.3916424e-18 -0.13436497)
(-5.3029215e-21 -8.6361338e-22 -0.1327064)
(6.7944425e-21 1.145141e-21 -0.13024102)
(0 1.8468789e-22 -0.12719183)
(0 -6.4777978e-21 -0.12370285)
(0 0 -0.11992787)
(0 0 -0.11599283)
(-1.3711847e-19 -9.8972019e-18 -0.11201628)
(1.8249423e-19 1.0910637e-17 -0.10807852)
(-3.463295e-20 -1.1435995e-21 -0.10426219)
(0 0 -0.037489312)
(7.6366654e-23 0 -0.052670383)
(-2.4576859e-22 1.0345037e-22 -0.06348753)
(3.81202e-21 4.3271884e-19 -0.075544184)
(-3.525537e-21 -4.4154519e-19 -0.085672945)
(-1.1199326e-20 -9.0972844e-19 -0.094255897)
(1.1469147e-20 9.4148464e-19 -0.10229194)
(-2.9978015e-22 4.4842372e-23 -0.10821728)
(-3.0317392e-20 -2.0563048e-18 -0.11344363)
(6.4582474e-20 4.3391522e-18 -0.11668238)
(-3.2533338e-20 -2.3003134e-18 -0.1189429)
(4.6425695e-21 -4.7836856e-21 -0.11956795)
(-1.0010644e-19 -5.253407e-18 -0.11916945)
(9.395054e-22 7.3512359e-21 -0.11757675)
(2.0895632e-19 1.2221123e-17 -0.11516001)
(-1.188209e-19 -6.6306514e-18 -0.11198799)
(2.0891883e-20 -5.7758287e-21 -0.10830902)
(-7.7178419e-22 1.5048296e-20 -0.10424773)
(-1.3007193e-20 -8.7351326e-21 -0.099966347)
(1.3199044e-19 9.4510605e-18 -0.095588537)
(-3.0749234e-19 -2.0790734e-17 -0.091223903)
(3.8627092e-19 2.2898054e-17 -0.086952529)
(-6.9848043e-20 1.7488232e-21 -0.082837179)
(0 0 -0.035898071)
(-7.7299514e-23 -3.4923652e-26 -0.04834069)
(8.0177846e-23 9.2247578e-23 -0.058165776)
(-2.9241744e-22 -3.0594763e-22 -0.068451764)
(7.2946545e-22 -2.5362157e-22 -0.077528485)
(-8.7217762e-23 5.1702072e-22 -0.084594415)
(-8.0940304e-22 -1.1148937e-21 -0.091523983)
(4.5717495e-22 1.1244312e-21 -0.096128458)
(3.4055694e-20 2.1661993e-18 -0.10032348)
(-3.7655903e-20 -2.2880554e-18 -0.10245904)
(2.0451489e-21 -1.0287042e-22 -0.10381064)
(1.6830422e-21 1.8672707e-21 -0.10355849)
(-2.0701019e-21 3.9193337e-21 -0.10241236)
(0 -8.7616848e-21 -0.10014487)
(-6.1339432e-20 -3.2177804e-18 -0.097163811)
(7.7210196e-20 3.4921259e-18 -0.093490464)
(-2.6607548e-20 -9.552819e-22 -0.089379147)
(6.3155585e-21 6.2385139e-21 -0.084958054)
(1.7812484e-19 9.0796541e-18 -0.080380636)
(3.0006857e-20 -6.5103098e-21 -0.07575859)
(-4.1684974e-19 -2.1917295e-17 -0.07118004)
(1.7168569e-19 1.2086811e-17 -0.066739517)
(3.2021648e-20 -1.3423383e-20 -0.062493711)
(0 -1.9729642e-25 -0.034850372)
(1.0065007e-21 1.1832563e-19 -0.044843137)
(-1.0141195e-21 -1.1932596e-19 -0.053718415)
(0 1.0626161e-22 -0.062360067)
(-1.2118438e-20 -9.8781352e-19 -0.070428029)
(1.2462945e-20 1.0170166e-18 -0.076105448)
(0 -1.8114369e-21 -0.082055816)
(-3.4928497e-20 -2.1900425e-18 -0.085496291)
(3.6654226e-20 2.2989567e-18 -0.088835647)
(0 1.7961452e-21 -0.09007442)
(0 -3.6626408e-21 -0.090728279)
(5.3980123e-20 2.7449092e-18 -0.089835625)
(1.7675776e-21 -2.5140943e-21 -0.088185942)
(-6.4262561e-20 -3.1660845e-18 -0.085491996)
(0 3.3131925e-21 -0.082161989)
(7.892743e-20 3.702218e-18 -0.078227767)
(-1.7207895e-19 -8.0602648e-18 -0.073905889)
(9.4073228e-20 4.3880796e-18 -0.069326613)
(1.0188845e-19 4.8276956e-18 -0.064645158)
(-2.2243134e-19 -1.0587196e-17 -0.059944672)
(2.254945e-19 1.1643041e-17 -0.055327139)
(-9.1353066e-20 -6.4111493e-18 -0.050880789)
(1.3559709e-19 7.0591711e-18 -0.046619422)
(1.5899415e-24 2.4539502e-22 -0.034659353)
(-2.0027756e-24 -2.4640096e-22 -0.042775639)
(-5.2240671e-21 -5.077087e-19 -0.050989794)
(5.6782531e-21 5.1465226e-19 -0.058366258)
(-8.4137089e-22 2.3523731e-23 -0.065746661)
(5.7911331e-22 -6.533574e-23 -0.070396951)
(8.5512164e-22 1.0313528e-22 -0.07571635)
(1.8229902e-20 1.1662395e-18 -0.078337404)
(-2.2350749e-20 -1.2242207e-18 -0.081155835)
(2.4623872e-21 -4.5728072e-23 -0.081834056)
(1.5164769e-21 1.7881878e-22 -0.08209874)
(-1.8371003e-21 -6.2700734e-23 -0.080866118)
(0 0 -0.078979304)
(-3.9714776e-21 -1.5257963e-22 -0.076112719)
(4.9870605e-21 -3.2049047e-23 -0.072674686)
(3.8968701e-21 3.9980479e-22 -0.068676947)
(-1.0664039e-19 -4.2976005e-18 -0.0643443)
(1.0177579e-19 4.6942697e-18 -0.059763479)
(-9.7724568e-20 -5.1296596e-18 -0.055110711)
(1.2705327e-19 5.6267364e-18 -0.05047078)
(-2.3209141e-20 6.330108e-21 -0.045918273)
(1.5046464e-20 -6.5363438e-21 -0.041541855)
(-1.6872015e-19 -7.5036651e-18 -0.037331669)
(-2.7061591e-22 -3.3680366e-20 -0.035355612)
(2.7114493e-22 3.3746207e-20 -0.042217186)
(0 0 -0.050272943)
(0 0 -0.056923869)
(0 5.7754405e-22 -0.064084308)
(0 -5.0841744e-22 -0.06817913)
(0 6.0637276e-22 -0.073326036)
(0 -8.3124876e-22 -0.075568159)
(0 -8.6660657e-22 -0.078249196)
(0 -1.9869357e-21 -0.078747118)
(-6.3942025e-20 -2.93013e-18 -0.078954955)
(6.8276191e-20 3.1335796e-18 -0.077684209)
(0 -1.5154337e-21 -0.075822727)
(0 0 -0.073013425)
(0 -3.5398774e-21 -0.069660185)
(0 3.8293649e-21 -0.065753232)
(0 -2.7657101e-21 -0.061539456)
(0 3.0075507e-21 -0.057092592)
(1.2270054e-20 1.8615316e-21 -0.052540419)
(1.4098725e-19 6.0300418e-18 -0.048010879)
(-1.847127e-19 -6.6391036e-18 -0.043595227)
(1.6232338e-20 -4.64784e-21 -0.039335679)
(0 5.7776722e-21 -0.035193174)
(6.1292574e-22 7.2460417e-20 -0.036823786)
(-3.5059457e-21 -3.6264608e-19 -0.042999597)
(9.4974916e-21 8.7565048e-19 -0.051390241)
(-6.6763206e-21 -5.9196353e-19 -0.057857426)
(8.1447499e-21 6.0382168e-19 -0.065271833)
(-8.3456347e-21 -6.2120636e-19 -0.069282949)
(1.0373005e-21 4.9147913e-22 -0.074690047)
(-2.5728816e-20 -1.3415957e-18 -0.076977644)
(2.5935917e-20 1.4086937e-18 -0.079888353)
(3.0398215e-20 1.4865176e-18 -0.080545814)
(-7.087046e-20 -3.1590793e-18 -0.08098534)
(4.2371623e-20 1.6886082e-18 -0.07993586)
(-2.3588806e-23 -3.3914253e-21 -0.078315448)
(-5.300898e-20 -1.9408569e-18 -0.075731236)
(5.5778042e-20 2.0998622e-18 -0.072606029)
(3.3997043e-21 2.7065529e-21 -0.06891752)
(-4.3432946e-21 3.2182169e-21 -0.064882622)
(-1.3918314e-20 -7.8017635e-21 -0.060617321)
(1.8113528e-20 8.2072934e-21 -0.056253848)
(-8.3345221e-20 -3.2313684e-18 -0.051857633)
(9.9487285e-20 3.5471655e-18 -0.047555692)
(-1.3500209e-20 5.864114e-21 -0.043426347)
(-1.3297791e-19 -4.3199645e-18 -0.039331618)
(4.2390351e-23 2.8478521e-24 -0.03885263)
(-1.8311704e-22 8.7836929e-23 -0.044783751)
(2.1380191e-22 6.905273e-23 -0.053868889)
(-8.3040164e-21 -6.3813375e-19 -0.060590271)
(8.3938303e-21 6.5148761e-19 -0.06864125)
(-2.603386e-22 -7.7473723e-22 -0.072943186)
(-5.5256211e-24 7.6493338e-22 -0.078948013)
(2.5697572e-22 9.5041953e-22 -0.081610599)
(0 1.2824159e-21 -0.08502455)
(1.014723e-21 -1.1796701e-21 -0.086102466)
(-2.4496281e-21 -2.5627936e-21 -0.086985998)
(2.0063258e-21 -2.8039431e-22 -0.086336897)
(5.8824311e-22 -1.0047834e-22 -0.085096342)
(-6.9095912e-22 2.0091166e-21 -0.082861637)
(-1.0207011e-21 1.6076543e-22 -0.080050973)
(-5.8674931e-21 -4.0791321e-22 -0.076638412)
(1.206556e-20 3.1268135e-21 -0.072844604)
(-7.9470707e-21 -2.928602e-21 -0.068774962)
(-8.8740562e-21 -8.7407247e-21 -0.064573192)
(2.9610263e-20 9.4545539e-21 -0.060358387)
(-1.2156372e-20 4.7138049e-22 -0.056198628)
(-1.6710359e-19 -4.2297279e-18 -0.052145982)
(1.3365259e-20 9.5390678e-22 -0.048060463)
(-8.2260257e-22 -8.4767767e-20 -0.041183247)
(-1.0894801e-21 -8.4569346e-20 -0.047149144)
(1.9658174e-21 1.700869e-19 -0.057147865)
(9.5300505e-21 6.9139041e-19 -0.064404561)
(-9.7764469e-21 -7.0545256e-19 -0.07333137)
(0 -4.7055145e-22 -0.078171548)
(0 7.0597504e-23 -0.084972956)
(-7.3420153e-22 -6.2757877e-22 -0.088224394)
(8.550409e-22 1.2400227e-21 -0.092306141)
(7.2473717e-22 -5.9096309e-22 -0.093956629)
(-8.6450517e-22 2.3530174e-21 -0.095403691)
(1.5653538e-21 -4.2000647e-21 -0.095256715)
(5.9247138e-20 2.1172859e-18 -0.094473932)
(1.6730038e-21 -3.0950943e-21 -0.092645288)
(-7.2920569e-20 -2.4615654e-18 -0.09018526)
(-8.7479937e-20 -2.6722926e-18 -0.0870784)
(9.5336667e-20 2.9060849e-18 -0.083545449)
(-1.0898568e-19 -3.1599894e-18 -0.079679757)
(-1.5722636e-21 -1.7752861e-21 -0.075642783)
(2.6684263e-19 7.5939181e-18 -0.071566386)
(-1.474259e-19 -4.1659604e-18 -0.06755516)
(0 -2.4021314e-21 -0.063601952)
(-1.6637496e-20 -1.2891074e-20 -0.059455235)
(0 0 -0.043582094)
(2.0481512e-21 1.8396144e-19 -0.049718411)
(-6.692289e-21 -5.5555124e-19 -0.060706284)
(1.0001211e-20 7.5083138e-19 -0.068641469)
(-1.7215917e-20 -1.1496543e-18 -0.078546356)
(1.211932e-20 7.885197e-19 -0.0840382)
(-1.5631531e-20 -8.174446e-19 -0.091711992)
(3.3916752e-20 1.7059471e-18 -0.095648547)
(-1.8782817e-20 -8.9736619e-19 -0.10045995)
(2.0646473e-22 1.4608568e-21 -0.10274472)
(2.0434781e-22 -7.1368661e-23 -0.10479459)
(1.343529e-21 1.2012808e-22 -0.10518487)
(-2.6642405e-21 2.2360253e-21 -0.10487681)
(-4.0777667e-20 -1.2415785e-18 -0.10346051)
(1.5760032e-21 2.3798688e-21 -0.10136047)
(-3.9522852e-21 2.8434382e-21 -0.098551607)
(1.1414932e-19 3.161982e-18 -0.095264525)
(-6.087518e-20 -1.7262417e-18 -0.091606635)
(7.3326986e-20 1.8871172e-18 -0.087749041)
(8.4821341e-22 -7.8018143e-21 -0.083803064)
(-9.8689454e-20 -2.2733998e-18 -0.079879263)
(8.5727602e-21 -1.3009815e-22 -0.076012723)
(-1.104629e-19 -2.7519392e-18 -0.071807682)
(9.9413089e-22 1.0043989e-19 -0.045879843)
(1.3062799e-21 1.0028861e-19 -0.052224666)
(-2.312887e-21 -2.0179971e-19 -0.064168855)
(-6.0519222e-21 -4.0910551e-19 -0.072804982)
(6.1869741e-21 4.1777512e-19 -0.083673536)
(1.1198645e-22 5.677639e-22 -0.089838339)
(-1.2295704e-22 -5.6305674e-22 -0.098367298)
(0 1.43856e-21 -0.10298993)
(0 -2.2507444e-21 -0.10851256)
(0 7.8285715e-22 -0.11142438)
(0 -9.5002631e-22 -0.11405557)
(0 1.0128036e-21 -0.11496009)
(0 1.2472412e-21 -0.1151067)
(0 -4.4603872e-21 -0.11408312)
(0 3.6541627e-21 -0.11231678)
(0 -3.1191711e-22 -0.10978622)
(0 -2.2425426e-21 -0.10673414)
(-3.387715e-21 2.3520362e-21 -0.10327184)
(-8.0712848e-20 -2.0574443e-18 -0.099568604)
(9.6804239e-20 2.2640011e-18 -0.095753485)
(-4.4626329e-21 9.3722048e-23 -0.091940043)
(0 -4.381958e-21 -0.088120542)
(0 5.2600315e-21 -0.083787401)
(0 0 -0.047963675)
(2.5803509e-21 2.1927178e-19 -0.054496363)
(-2.5957037e-21 -2.2057642e-19 -0.067301924)
(0 0 -0.076589846)
(0 -6.097669e-22 -0.088338066)
(0 6.2666619e-22 -0.095128168)
(-3.4475226e-22 3.9001747e-22 -0.10442974)
(3.9492327e-22 -3.9264767e-23 -0.10968574)
(3.4060663e-22 -3.7656671e-22 -0.11585377)
(-3.9906887e-22 5.4047931e-22 -0.11933606)
(0 -1.2049238e-21 -0.12248853)
(4.0129607e-20 1.2827673e-18 -0.12385259)
(-4.202573e-20 -1.3770105e-18 -0.12440704)
(-2.6928429e-21 1.0379882e-21 -0.12373408)
(-6.0030099e-20 -1.6018372e-18 -0.12226183)
(-5.8609439e-22 2.553912e-21 -0.11998234)
(7.3729051e-20 1.8937005e-18 -0.1171397)
(-8.9032967e-20 -2.0609407e-18 -0.11385019)
(-2.7981751e-21 2.2249819e-21 -0.11030096)
(2.230759e-19 4.94891e-18 -0.10661749)
(-2.5041836e-19 -5.4302928e-18 -0.10290422)
(1.3926463e-19 2.9910548e-18 -0.099133781)
(5.2698304e-21 1.0929294e-22 -0.094632961)
(0 0 -0.049786887)
(0 7.4840511e-23 -0.056461692)
(0 -7.5236738e-23 -0.069996413)
(-3.5972126e-21 -2.4489953e-19 -0.079845144)
(3.6669021e-21 2.4996294e-19 -0.092352212)
(-2.7547049e-22 1.5705482e-22 -0.099688649)
(1.282815e-22 -3.6542356e-23 -0.10965059)
(3.5737361e-22 -8.4382311e-22 -0.11545785)
(-2.4583416e-22 1.483817e-21 -0.12218041)
(1.7424028e-20 6.1966855e-19 -0.12614927)
(1.4776885e-21 -8.8661125e-22 -0.12975188)
(-2.1663409e-20 -7.0503574e-19 -0.13150876)
(-1.9285677e-22 8.5308493e-22 -0.13240475)
(-3.0392551e-20 -8.1051835e-19 -0.13203064)
(3.4330497e-20 8.7564283e-19 -0.13081411)
(-1.7198285e-23 2.4331046e-21 -0.12874662)
(-8.9032425e-22 -1.7288428e-21 -0.12608447)
(0 1.85982e-21 -0.12295114)
(0 0 -0.11954513)
(-6.6543052e-20 -1.3532135e-18 -0.11599416)
(7.3267718e-20 1.4899873e-18 -0.11238316)
(0 0 -0.10864704)
(5.6379964e-21 4.5694797e-21 -0.10395494)
(-7.3317192e-22 -6.6040395e-20 -0.051327242)
(7.3299316e-22 6.5992294e-20 -0.058097628)
(-3.3454233e-23 9.9688576e-23 -0.072229173)
(-4.0615807e-21 -2.6915685e-19 -0.082536334)
(8.9603586e-21 5.5027055e-19 -0.095674796)
(-4.9832891e-21 -2.834765e-19 -0.1034622)
(6.9027908e-23 -4.3403136e-22 -0.11396674)
(-2.1472312e-22 -3.1726872e-22 -0.12023115)
(-3.2642103e-24 7.488599e-22 -0.12740634)
(5.1286333e-22 1.0921598e-22 -0.13177788)
(3.6631696e-22 6.4759575e-22 -0.13574354)
(-7.5527988e-22 -1.5673695e-21 -0.13782253)
(-9.3050793e-22 1.8970777e-21 -0.13899794)
(-3.3561985e-20 -8.9735211e-19 -0.13886193)
(3.8172295e-20 9.6823174e-19 -0.13785596)
(4.4392725e-22 1.1945452e-21 -0.13597048)
(-1.4879936e-21 1.9174311e-21 -0.13346176)
(-6.1669576e-20 -1.2464256e-18 -0.13046631)
(6.538507e-20 1.3662513e-18 -0.12719391)
(3.2435579e-21 -2.2054453e-22 -0.12377083)
(2.4332168e-21 3.5045008e-22 -0.12025989)
(-1.0801911e-19 -1.8030207e-18 -0.11657093)
(4.195554e-21 8.1431147e-21 -0.11168579)
(-7.9673164e-22 -7.2636793e-20 -0.05260744)
(7.6900567e-22 7.2529969e-20 -0.05943506)
(-2.0739134e-21 -1.4623006e-19 -0.074034966)
(2.1605857e-21 1.4808874e-19 -0.084712682)
(3.1129799e-23 4.2515573e-22 -0.098358142)
(-6.1211955e-21 -3.1204474e-19 -0.10651243)
(6.3753126e-21 3.2328847e-19 -0.11745544)
(-1.0968328e-22 2.7116763e-23 -0.12408982)
(-3.5607872e-22 -6.4699316e-22 -0.1316311)
(-2.1199203e-20 -7.5142481e-19 -0.1363277)
(2.3634268e-20 8.0044452e-19 -0.14058184)
(-3.051637e-20 -8.5286195e-19 -0.14291711)
(-2.3997155e-21 -3.003304e-22 -0.1443196)
(3.8405594e-20 9.8810278e-19 -0.14437209)
(-5.747744e-22 6.6840277e-22 -0.14352879)
(-1.8975291e-21 -2.4441682e-23 -0.14177606)
(-6.1059906e-20 -1.2588905e-18 -0.13938396)
(6.800386e-20 1.3766046e-18 -0.1365032)
(0 0 -0.13333257)
(0 -4.872433e-21 -0.13000115)
(5.1796444e-20 9.0967427e-19 -0.12656494)
(-5.994505e-20 -9.9775378e-19 -0.12288284)
(6.9077423e-20 1.0934926e-18 -0.11772912)
(2.4486053e-23 -2.3030511e-24 -0.053636729)
(4.0976754e-23 2.5440971e-24 -0.06047131)
(2.2439076e-21 1.6117134e-19 -0.075428854)
(2.5730318e-22 4.4986283e-23 -0.086365477)
(-2.6285562e-21 -1.6690526e-19 -0.10040076)
(-6.7740061e-21 -3.440607e-19 -0.10881872)
(-7.5702179e-22 -4.5709027e-22 -0.12008131)
(8.1237417e-21 3.7325867e-19 -0.1269799)
(1.349043e-22 -3.269023e-22 -0.13477141)
(1.1829942e-20 4.1376982e-19 -0.13969597)
(-1.2865346e-20 -4.4019728e-19 -0.14414591)
(3.2015132e-22 1.0261956e-21 -0.14664782)
(-4.9175817e-22 -2.21743e-21 -0.14819905)
(3.6952908e-22 5.3333221e-22 -0.14838957)
(2.9044246e-22 2.3015492e-21 -0.14767793)
(-3.749478e-22 1.3005415e-22 -0.146065)
(-3.5086662e-20 -6.9874508e-19 -0.14383336)
(3.8375291e-20 7.6209534e-19 -0.1411403)
(1.3278129e-21 2.0841387e-23 -0.13820389)
(-1.730578e-21 -1.7237584e-21 -0.13514423)
(5.9177145e-20 1.0017616e-18 -0.13199863)
(-6.788318e-20 -1.1032306e-18 -0.12856956)
(3.2369775e-21 -2.955813e-21 -0.12342755)
(1.9858217e-21 2.5514262e-18 -0.079136102)
(6.1219547e-21 -6.8628599e-21 -0.075595573)
(-2.9744761e-20 3.1851132e-21 -0.071983751)
(2.4877444e-21 5.6845551e-18 -0.068313586)
(1.6157708e-20 -7.5958394e-21 -0.064629534)
(-1.4292522e-22 4.0745485e-21 -0.060956434)
(-1.8949635e-21 -6.4505801e-18 -0.057291461)
(-1.679282e-21 -6.7651819e-18 -0.05369399)
(1.5605582e-22 -7.1233484e-24 -0.050163404)
(1.5973383e-22 9.7362256e-21 -0.046695266)
(1.6147575e-21 7.8655845e-18 -0.043335908)
(-1.3668682e-21 -8.3115212e-18 -0.040097755)
(1.4457988e-21 8.7971132e-18 -0.036966196)
(4.5182125e-20 9.3204172e-18 -0.033961604)
(-5.1732969e-20 -6.9950771e-21 -0.031086823)
(-4.4779475e-20 -1.0499348e-17 -0.028347425)
(-9.2166901e-21 -1.1175277e-17 -0.025742984)
(4.8815761e-21 1.1916652e-17 -0.023274509)
(1.3854261e-19 -4.6221596e-21 -0.020923056)
(7.7254378e-20 1.5839026e-21 -0.018706235)
(-1.761262e-19 -1.1119511e-20 -0.016635758)
(-8.1619829e-20 -1.6761638e-21 -0.014670855)
(9.7475002e-20 1.8785003e-21 -0.012852251)
(0 0 -0.011123923)
(0 8.8065588e-21 -0.0095106858)
(-6.2459165e-22 2.0424994e-17 -0.0079995626)
(6.706415e-22 -2.1940386e-17 -0.0065901711)
(2.6340259e-20 -8.0284054e-21 -0.10354008)
(-2.0324073e-20 5.3023037e-18 -0.10017257)
(-3.7503281e-20 -5.4839008e-18 -0.096712835)
(4.2269051e-20 -5.7137778e-18 -0.093178374)
(-3.1197015e-21 4.2909394e-23 -0.089616562)
(-3.4329807e-20 -7.3101461e-22 -0.086040161)
(4.9276312e-20 6.4837805e-18 -0.082477392)
(-1.0444993e-21 2.1155223e-23 -0.078963231)
(-8.372836e-20 -7.139177e-18 -0.075490345)
(6.2142139e-20 1.3280252e-21 -0.07208782)
(3.4717396e-20 1.5828214e-17 -0.068795005)
(-7.4244093e-20 -1.6728557e-17 -0.065591812)
(4.1477552e-20 8.8713552e-18 -0.062502236)
(0 9.1704796e-24 -0.059532904)
(0 -1.917452e-20 -0.056674704)
(0 6.8477145e-21 -0.053944269)
(-5.4599862e-20 1.1242214e-17 -0.051348182)
(6.489566e-20 -1.1982117e-17 -0.048897508)
(-1.4581414e-20 1.4721106e-20 -0.04655395)
(-6.6741614e-20 -2.5289019e-20 -0.044320565)
(1.7137725e-19 2.7954363e-20 -0.042254818)
(-6.4441092e-21 8.5880858e-21 -0.040283766)
(-9.3052653e-20 1.666691e-17 -0.038426633)
(-1.2273743e-19 -2.8795919e-21 -0.036694729)
(1.3299162e-19 -3.8339876e-17 -0.035063744)
(1.2607446e-19 2.0575155e-17 -0.033583007)
(-1.4754408e-19 -2.2093263e-17 -0.032169906)
(2.5778452e-20 4.1898827e-21 -0.12366146)
(-5.6452836e-20 -5.5808737e-21 -0.12055417)
(3.3152884e-20 4.9661491e-21 -0.11734041)
(6.0734766e-20 1.1535902e-17 -0.1140662)
(-6.5669611e-20 -1.2000694e-17 -0.11072844)
(3.0870544e-20 1.2528773e-17 -0.1073737)
(-3.2294039e-20 -1.3129263e-17 -0.10402679)
(-3.0720992e-20 -1.3729779e-17 -0.10069274)
(1.6044896e-21 -9.785917e-21 -0.097407372)
(6.1746149e-20 -1.8292567e-20 -0.094197935)
(2.905317e-20 1.6053629e-17 -0.091065)
(-2.1031595e-19 -1.184545e-20 -0.088012365)
(3.9095997e-20 1.7914203e-17 -0.085065214)
(3.0375194e-19 -1.8971545e-17 -0.082224464)
(-1.1139708e-19 1.0234845e-20 -0.079493072)
(-1.8549553e-19 -1.9859716e-20 -0.076867704)
(1.3753003e-19 2.2760919e-17 -0.074374431)
(-1.3929999e-19 3.5846158e-21 -0.072016783)
(2.4981646e-19 -5.1725495e-17 -0.069758121)
(-4.1145718e-20 -8.2858966e-21 -0.067627389)
(-4.3562673e-19 5.9020391e-17 -0.065592652)
(3.3424791e-19 -6.3148214e-17 -0.063679285)
(1.8719944e-19 4.2462191e-20 -0.061889424)
(-2.1891932e-19 -2.5393999e-20 -0.06018745)
(1.9719089e-21 -8.7566771e-21 -0.058638936)
(6.8601618e-20 8.3375083e-17 -0.057217228)
(-3.4847929e-19 -4.4769494e-17 -0.055865594)
(3.0088358e-20 8.6798623e-21 -0.13551688)
(7.1316147e-20 2.1820044e-17 -0.13260694)
(-8.0837171e-20 -1.1315813e-17 -0.12958315)
(4.656083e-20 1.1754169e-17 -0.12648178)
(3.8450806e-20 6.0730673e-22 -0.12332726)
(7.6215228e-20 2.397425e-21 -0.12015245)
(-1.8919847e-19 -1.3364859e-17 -0.11697518)
(1.1015393e-20 -2.9539368e-23 -0.11381075)
(9.937229e-20 -1.4707852e-17 -0.11069675)
(-1.1623494e-19 -3.6022171e-21 -0.1076321)
(5.2055498e-20 3.2669261e-17 -0.10464803)
(9.6573281e-21 -1.7259837e-17 -0.10174654)
(0 -2.3447581e-20 -0.098925772)
(-9.333574e-20 1.0046475e-20 -0.096225633)
(1.0935133e-19 2.9495596e-20 -0.093620792)
(2.0765132e-19 -5.2262657e-21 -0.091124833)
(-2.4536882e-19 -8.973918e-21 -0.088740818)
(-1.1411476e-19 -4.6876624e-21 -0.086461326)
(1.9513945e-19 2.6338449e-17 -0.084302771)
(-6.2909564e-20 -2.8100857e-17 -0.082243934)
(1.9279493e-19 -9.0854707e-21 -0.080295125)
(-4.3909518e-19 -3.3336758e-20 -0.07846775)
(5.8186136e-20 1.8911002e-20 -0.07676004)
(4.3896572e-19 1.7186774e-20 -0.075143252)
(-2.5111052e-19 -2.997706e-20 -0.073639795)
(0 2.0797972e-20 -0.072289445)
(-9.7733668e-27 2.1215099e-20 -0.07101372)
(-7.4781262e-20 -1.0794828e-17 -0.1385451)
(7.3118956e-20 1.118241e-17 -0.13559846)
(-7.5788226e-20 -1.1608601e-17 -0.13254838)
(0 9.3868213e-21 -0.12942521)
(0 -8.6798054e-21 -0.12625476)
(7.4980236e-20 1.3092379e-17 -0.12306777)
(-7.8454664e-20 -1.3690935e-17 -0.11988131)
(-7.6340457e-20 -1.4360554e-17 -0.11672386)
(3.0556763e-21 1.1326029e-20 -0.11360895)
(1.5927936e-19 3.1742229e-17 -0.11056068)
(6.8486532e-20 1.6642825e-20 -0.10759115)
(-7.3000127e-21 -2.7775421e-20 -0.10469567)
(-2.4864016e-19 -1.8686443e-17 -0.10189924)
(-7.7706484e-20 -1.9838951e-17 -0.099219575)
(9.6759393e-20 -2.43025e-20 -0.096632066)
(8.9743594e-20 2.23889e-17 -0.094164469)
(8.805727e-20 2.3822298e-17 -0.091811225)
(-3.5436893e-20 -5.0718972e-17 -0.089558179)
(-7.8518363e-20 2.7027046e-17 -0.087410841)
(-1.4725435e-19 -6.9082057e-21 -0.085366694)
(7.8240407e-20 -3.0842083e-17 -0.083469281)
(1.0451036e-19 3.3041672e-17 -0.081654716)
(0 -3.7048435e-20 -0.079931903)
(1.613295e-19 -3.7857261e-17 -0.078343101)
(-1.9841577e-19 4.059542e-17 -0.076904856)
(-5.8900678e-19 -2.6220295e-20 -0.075540144)
(6.6862959e-19 5.1593013e-20 -0.074282572)
(-1.2643957e-19 -1.1151498e-17 -0.13293518)
(1.2938219e-19 7.3940161e-21 -0.12971879)
(6.3797981e-20 1.1947197e-17 -0.12640631)
(-6.8016742e-20 -3.3671416e-21 -0.12304044)
(3.7544501e-20 -9.2166422e-21 -0.11963599)
(4.6946915e-20 1.3459275e-20 -0.11622122)
(-5.344672e-20 -2.0608121e-21 -0.11283511)
(-1.5067135e-19 -1.4811138e-17 -0.10949042)
(2.2533366e-19 1.5552391e-17 -0.10619688)
(-1.4056765e-19 2.1283738e-20 -0.10298841)
(2.0220734e-19 1.7260783e-17 -0.099871211)
(-3.6312901e-20 -4.2452035e-21 -0.096850058)
(-2.8617082e-19 -3.8601581e-17 -0.093929057)
(3.9482467e-19 2.046047e-17 -0.091131324)
(-3.3680774e-19 -2.1706156e-17 -0.088459135)
(-1.0640419e-19 2.3047852e-17 -0.085899729)
(1.4998404e-19 -2.4524478e-17 -0.083473655)
(1.3149883e-19 2.7440591e-20 -0.081131135)
(-1.7368828e-20 2.7874223e-17 -0.078924588)
(-1.3269937e-19 -2.9790809e-17 -0.076829497)
(-7.2125721e-20 3.1812717e-17 -0.074830688)
(1.5643114e-19 3.4020668e-17 -0.072955694)
(3.3743199e-19 -3.6430036e-17 -0.071190253)
(-1.8698781e-20 4.8364977e-20 -0.06957613)
(-2.7856208e-19 -1.6940377e-20 -0.06805133)
(-3.4160045e-19 -3.7536101e-20 -0.06662627)
(1.6229437e-20 -4.7727299e-20 -0.06535207)
(-3.3032001e-21 -9.6490864e-21 -0.11955705)
(-1.972372e-19 -1.1946908e-17 -0.11593565)
(1.0013227e-21 7.1413715e-21 -0.1122321)
(-4.9933711e-20 -1.2854891e-17 -0.1084895)
(8.6746939e-20 1.3396592e-17 -0.10474435)
(-1.7293396e-19 -1.3987832e-17 -0.10101286)
(2.3984383e-19 1.4652199e-17 -0.097318603)
(-1.3656812e-19 -1.5355277e-17 -0.093693256)
(-1.8567895e-19 8.0092533e-21 -0.090132398)
(2.8731397e-19 3.3925825e-17 -0.08666913)
(-6.3666679e-20 -3.5798155e-17 -0.083327963)
(2.3359079e-19 1.8943139e-17 -0.080106587)
(-4.6452652e-20 1.9969712e-17 -0.077007579)
(-2.4281103e-19 -2.1195811e-17 -0.074026062)
(1.0594493e-19 2.1296642e-20 -0.071194166)
(0 -1.6818554e-20 -0.068490527)
(-1.5239979e-19 -3.6670862e-21 -0.065912827)
(1.7586891e-20 -2.711368e-17 -0.063467328)
(1.5745313e-19 9.9281478e-21 -0.061129027)
(-3.2001361e-21 3.0878531e-17 -0.05889727)
(5.3795923e-20 -3.3000993e-17 -0.056808257)
(1.7228859e-19 3.5324284e-17 -0.0548229)
(-8.0439223e-19 -6.64033e-20 -0.052951228)
(5.4157458e-19 4.0537143e-17 -0.051208842)
(3.6709999e-19 -4.3378924e-17 -0.049600499)
(3.840635e-20 -2.6796284e-20 -0.048157339)
(-7.8673343e-19 -6.1726101e-20 -0.046831156)
(-3.2436698e-20 1.9221142e-20 -0.1004096)
(-8.5770469e-20 -1.2473825e-17 -0.096404)
(2.7968423e-19 2.5820266e-17 -0.092350235)
(-2.0321171e-19 -1.3418886e-17 -0.088268571)
(4.2819213e-20 1.3427931e-20 -0.084197945)
(0 -1.1792922e-20 -0.08017563)
(0 0 -0.076209353)
(-6.5407648e-20 9.7934708e-21 -0.072320565)
(1.4733915e-19 6.6207539e-21 -0.068529347)
(-1.8347675e-20 -2.7933681e-20 -0.064859222)
(-1.4727317e-19 -8.1093369e-21 -0.061318688)
(8.3821294e-20 1.9789464e-20 -0.057919815)
(0 1.6439593e-20 -0.05464932)
(0 -1.7179987e-20 -0.051531783)
(0 -2.2550623e-20 -0.048567295)