/*--------------------------------*- C++ -*----------------------------------*\
  =========                 |
  \\      /  F ield         | OpenFOAM: The Open Source CFD Toolbox
   \\    /   O peration     | Website:  https://openfoam.org
    \\  /    A nd           | Version:  8
     \\/     M anipulation  |
\*---------------------------------------------------------------------------*/
FoamFile
{
    version     2.0;
    format      ascii;
    class       surfaceScalarField;
    location    "10";
    object      meshPhi;
}
// * * * * * * * * * * * * * * * * * * * * * * * * * * * * * * * * * * * * * //

dimensions      [0 3 -1 0 0 0 0];

internalField   nonuniform List<scalar> 
36597
(
0
0
0
0
0
0
0
0
0
0
0
0
0
0
0
0
0
0
0
0
0
0
4.4478258e-08
0
4.0881009e-06
-2.3351479e-16
1.2984036e-05
-2.1721822e-16
2.4767199e-05
1.7213929e-20
3.7991057e-05
1.8575009e-16
5.1634073e-05
-1.708696e-16
6.5009127e-05
0
7.7682727e-05
0
8.9407085e-05
1.3069241e-16
0.00010006554
1.1892594e-16
0.00010963035
1.0797619e-16
-9.7860166e-17
0.00011813115
0
0
0
0
0
0
0
0
0
0
0
0
0
0
0
0
0
0
3.3608532e-06
-2.8347975e-16
1.8106422e-05
2.169474e-20
4.0961887e-05
2.509854e-16
7.2562383e-05
2.3445966e-16
0.00011123193
2.1801876e-16
0.00015317654
-2.0190382e-16
0.00019568626
4.3224723e-20
0.00023692689
4.0745216e-20
0.0002757426
1.5719849e-16
0.00031148251
-1.4362285e-16
0.00034385699
-1.3100842e-16
0.00037282352
2.7046792e-20
0.00039849975
2.380356e-20
2.0831537e-20
0.00042109944
0
0
0
0
0
0
0
0
0
0
0
0
0
0
2.790457e-06
-3.1485034e-16
2.2963317e-05
3.0020481e-16
6.1017749e-05
-2.8464705e-16
0.00011972176
0
0.00019158184
-2.519159e-16
0.00027006804
7.6475612e-20
0.00035027312
-2.1876762e-16
0.00042870708
4.0534672e-16
0.00050305053
-1.8686706e-16
0.00057190489
-1.7189621e-16
0.00063456351
-1.5752367e-16
0.00069081591
-2.8809902e-16
0.0007407891
4.4030776e-20
0.00078482454
1.1952335e-16
0.00082338674
1.0850151e-16
2.9299142e-20
0.00085699792
0
0
0
0
0
0
0
0
0
0
0
0
1.146678e-05
1.745025e-20
5.0572442e-05
3.1618473e-16
0.00012480807
3.0157258e-16
0.00022510482
1.0081949e-19
0.00034108703
1.1064118e-19
0.00046436328
2.5303533e-16
0.00058851064
0
0.00070889904
1.0748066e-19
0.00082242762
1.0028349e-19
0.00092722945
1.876286e-16
0.0010223839
1.7258262e-16
0.0011076603
-1.5802794e-16
0.0011833029
0
0.0012498612
5.7258203e-20
0.00130806
4.9935835e-20
0.0013587059
4.3361881e-20
9.852321e-17
0.0014026224
0
0
0
0
0
0
0
0
0
0
1.7740604e-05
3.4269802e-16
7.7434858e-05
0
0.00018423032
0
0.00032403406
6.0573972e-16
0.00048414799
0
0.00065396505
0
0.00082512933
-1.5348159e-19
0.00099145345
0
0.0011486797
0
0.0012941617
0
0.0014265248
-1.8811395e-16
0.0015453462
0
0.0016508753
1.5854551e-16
0.0017438046
0
0.0018250914
0
0.0018958252
1.2009235e-16
0.0019571337
1.0898672e-16
0
0.0020101201
0
0
0
0
0
0
0
0
1.7170563e-05
2.7722131e-20
8.8482006e-05
-3.4418464e-16
0.00021830268
3.3250794e-16
0.00039052819
0
0.00059018132
3.0426372e-16
0.00080423684
0
0.0010220502
0
0.0012354529
2.5503202e-16
0.0014386045
0
0.0016276942
2.2120997e-16
0.0018005727
2.0473491e-16
0.0019563756
0
0.0020951755
1.7349507e-16
0.0022176854
0
0.0023250203
0
0.0024185137
0
0.0024995856
0
0.00256965
6.0678899e-20
0
0.0026300559
0
0
0
0
0
0
1.0398623e-05
0
7.8226623e-05
0
0.00021692829
1.4534825e-19
0.00040958943
3.3395288e-16
0.00063936007
3.2020671e-16
0.00089086142
0
0.0011509673
0
0.0014091747
0
0.0016576345
-2.5593426e-16
0.0018909418
2.3883334e-16
0.0021057839
0
0.0023005292
0
0.0024748193
3.7842291e-16
0.0026292007
3.4770824e-16
0.0027648166
1.5919637e-16
0.0028831631
0
0.0029859053
0
0.0030747477
-1.2048499e-16
0.0031513462
0
9.9003878e-17
0.0032172534
0
0
0
0
2.3723787e-06
0
5.1444135e-05
0
0.00018162954
0
0.00037867978
-3.4719766e-16
0.0006247094
0
0.00090242459
0
0.0011963022
0
0.0014933219
2.9035007e-16
0.0017832772
2.7387741e-16
0.0020587444
0
0.0023148176
-2.3953995e-16
0.0025487089
0
0.0027593034
-2.0564494e-16
0.0029467262
1.8955492e-16
0.003111961
1.7429308e-16
0.0032565343
0
0.0033822714
-1.4568119e-16
0.0034911159
1.3273225e-16
0.003585004
0
0.0036657832
1.0946749e-16
-6.3375439e-20
0.0037351631
0
0
0
0
2.082914e-05
0
0.00012389876
3.6586654e-16
0.00030678515
0
0.00055181951
0
0.0008406664
-3.3657073e-16
0.0011558716
3.225497e-16
0.0014820007
6.1516907e-16
0.001806318
0
0.0021190382
0
0.0024132409
0
0.002684555
0
0.0029307224
0
0.0031511244
0
0.0033463328
1.8991022e-16
0.0035177192
0
0.0036671389
0
0.0037966891
0
0.0039085339
-1.3300868e-16
0.0040047867
0
0.0040874343
1.0966342e-16
0
0.004158296
0
0
2.5374512e-06
0
6.1739699e-05
0
0.00021152001
-3.670871e-16
0.00043655148
0
0.00071873749
0
0.0010395932
0
0.0013817592
0
0.0017300907
0
0.0020722815
0
0.0023990612
0
0.0027040597
0
0.0029834531
0
0.0032354965
2.2346336e-16
0.0034600319
0
0.0036580291
0
0.0038311922
0
0.003981646
0
0.0041117004
-1.4604309e-16
0.0042236832
0
0.0043198305
0
0.0044022193
-1.0967019e-16
0
0.0044727333
0
0
1.5262122e-05
-3.7596895e-16
0.00011499997
0
0.00030135999
2.1522111e-19
0.00055802707
-3.6052528e-16
0.00086678085
-3.5049022e-16
0.0012092557
-3.3835939e-16
0.0015684064
3.8959638e-19
0.0019295429
-3.0913154e-16
0.0022808988
0
0.0026137799
-2.7570105e-16
0.0029223878
2.586177e-16
0.0032034344
-2.4082052e-16
0.0034556555
0
0.0036793062
-2.0669887e-16
0.0038756983
0
0.0040468092
0
0.0041949737
-1.6007677e-16
0.0043226568
1.4628911e-16
0.0044322963
0
0.0045262012
9.8553046e-20
0.0046064934
-1.0972458e-16
0
0.0046750808
2.9428496e-08
-1.8898683e-16
3.9330352e-05
3.0068052e-20
0.00017095508
-3.743364e-16
0.00038418708
1.2779521e-19
0.00066260253
-3.6150896e-16
0.0009881263
3.7816397e-19
0.0013427423
-1.6940895e-16
0.0017099007
4.2108112e-19
0.0020754941
-1.5470321e-16
0.0024283739
1.4708074e-16
0.0027604548
-1.3810324e-16
0.0030665075
0
0.0033437516
-2.4116104e-16
0.0035913573
1.3940674e-19
0.0038099374
1.2279838e-19
0.0040010859
1.9080229e-16
0.0041669934
-8.7396083e-17
0.0043101476
1.5993037e-19
0.0044331154
1.3715151e-19
0.0045383953
5.8622421e-20
0.0046283259
-6.0456726e-17
0.0047050354
-5.4875098e-17
7.2540987e-20
0.0047704214
2.5515367e-06
2.9861349e-21
6.8038666e-05
1.8892828e-16
0.0002229629
1.8771575e-16
0.00045420971
2.9156776e-19
0.00074550027
1.8137137e-16
0.0010791334
2.0562631e-19
0.0014376321
2.1967302e-19
0.0018050849
1.6318301e-16
0.0021680611
1.5564998e-16
0.0025160775
-2.9386377e-16
0.0028416675
1.3870688e-16
0.0031401498
1.2988374e-16
0.00340921
1.2087698e-16
0.0036483984
1.1230362e-16
0.0038586252
1.2591276e-19
0.0040417062
9.5459636e-17
0.004199987
-8.7433744e-17
0.0043360545
-8.0030489e-17
0.0044525297
1.4639492e-16
0.0045519297
6.6652129e-17
0.0046365857
5.0147331e-20
0.0047086001
5.4917614e-17
4.9712502e-17
0.004769833
9.7960407e-06
-1.8923172e-16
9.6415011e-05
-1.8928114e-16
0.00026699353
1.8812805e-16
0.00050850696
1.8560903e-16
0.00080503455
1.8176937e-16
0.0011394358
1.7648471e-16
0.0014949227
0
0.0018563285
0
0.0022109624
0
0.0025490306
2.1942189e-19
0.0028636757
0
0.0031507308
1.298452e-16
0.0034082972
0
0.0036362469
0
0.0038357261
0
0.004008713
9.5384008e-17
0.004157654
-8.7547319e-17
0.0042851867
0
0.0043939439
-7.3128339e-17
0.004486426
0
0.0045649265
6.0550968e-17
0.0046314972
0
-4.9699735e-17
0.0046879397
2.0055127e-05
1.894547e-16
0.0001214084
-1.8955805e-16
0.00030108745
0
0.00054634342
-1.8579354e-16
0.00084178536
0
0.0011709792
1.7702874e-16
0.0015179376
-1.7060333e-16
0.001868313
2.4586854e-19
0.0022101918
3.1158449e-16
0.0025344739
-1.4731845e-16
0.0028348885
0
0.0031077412
-1.2976653e-16
0.0033514954
1.2106545e-16
0.0035662851
1.1229352e-16
0.0037534336
-1.0361817e-16
0.0039150255
1.1140035e-19
0.0040535579
0
0.0041716765
8.0194111e-17
0.0042719901
7.3184028e-17
0.0043569528
0
0.0044287972
-6.0530702e-17
0.0044895053
0
3.4856866e-20
0.0045408051
3.075873e-05
2.775041e-20
0.00014143885
1.9003266e-16
0.00032479331
-1.8852157e-16
0.00056849699
1.8628221e-16
0.00085782058
2.2139133e-19
0.0011771439
2.4333709e-19
0.0015113579
1.7109881e-16
0.0018469804
2.5432902e-19
0.0021728912
2.4642814e-19
0.0024806731
2.3224845e-19
0.0027646114
2.1383561e-19
0.0030214383
1.9303813e-19
0.0032499252
1.7139246e-19
0.0034504116
-1.121786e-16
0.0036243425
1.2991779e-19
0.0037738583
1.1143166e-19
0.0039014627
8.7729562e-17
0.0040097719
8.0346768e-20
0.0041013412
-7.3024271e-17
0.0041785545
6.6601228e-17
0.0042435654
4.7888632e-20
0.0042982727
4.0208362e-20
3.3771475e-20
0.004344321
4.0394338e-05
-1.899631e-16
0.00015597119
-1.9021382e-16
0.00033866157
0
0.00057667607
-1.8635492e-16
0.0008560423
0
0.001162027
-1.7754679e-16
0.0014804473
0
0.0017987089
0
0.0021064837
0
0.0023960172
-1.4758086e-16
0.0026621143
0
0.0029018881
1.299118e-16
0.0031143669
0
0.0033000438
0
0.0034604358
0
0.0035976947
0
0.0037142926
8.7519928e-17
0.0038127853
8.0068346e-17
0.0038956493
0
0.0039651804
0
0.0040234395
-6.0466712e-17
0.0040722331
1.0960327e-16
3.2486827e-20
0.0041131161
4.8199928e-05
4.7485651e-20
0.00016515332
1.0787484e-19
0.00034383125
1.6250095e-19
0.00057305971
2.0710085e-19
0.00083968599
2.3993517e-19
0.0011299068
1.7775099e-16
0.0014304883
0
0.0017297268
1.6430488e-16
0.0020180726
-1.5612161e-16
0.0022884054
1.4791821e-16
0.002536012
-1.3889734e-16
0.0027583425
1.9744833e-19
0.0029546357
1.2136586e-16
0.0031254923
1.1235705e-16
0.0032724589
-1.0362964e-16
0.0033976612
1.1029516e-19
0.0035035078
9.3016694e-20
0.0035924683
7.7974425e-20
0.0036669212
-7.3025095e-17
0.0037290598
5.4161899e-20
0.0037808429
-6.0382173e-17
0.0038239788
5.4782447e-17
3.1062784e-20
0.0038599299
5.3912963e-05
1.9045602e-16
0.00016953349
1.9064882e-16
0.0003417196
0
0.00055996414
2.1482628e-19
0.00081196915
0
0.0010848794
2.6716267e-19
0.0013664114
2.7510928e-19
0.0016457402
-1.6416324e-16
0.0019140697
-1.5622393e-16
0.002164882
0
0.0023939076
0
0.0025988927
1.3019249e-16
0.0027792461
-1.2103391e-16
0.0029356375
1.5117594e-19
0.0030696078
1.2923963e-19
0.003183226
1.0936021e-19
0.0032788116
8.7554214e-17
0.0033587282
7.6526467e-20
0.0034252413
0
0.003480431
6.6485327e-17
0.003526148
4.3378929e-20
0.003563999
-5.4705649e-17
4.9541045e-17
0.0035953531
5.757893e-05
-1.9061257e-16
0.00016985475
-1.9069973e-16
0.00033380648
0
0.00053962155
1.8715768e-16
0.00077586876
0
0.0010306383
0
0.0012925824
0
0.0015517299
0
0.0018000076
0
0.0020314642
0
0.0022422372
1.3922138e-16
0.0024303329
0
0.002595295
0
0.0027378306
1.1235148e-16
0.0028594472
0
0.002962133
0
0.0030480995
0
0.003119589
-7.9962032e-17
0.0031787431
-7.2945423e-17
0.0032275225
0
0.0032676653
0
0.0033006755
-5.4665254e-17
4.9500951e-17
0.0033278299
5.9413859e-05
0
0.00016691592
0
0.00032149745
-1.896655e-16
0.00051404889
0
0.00073399933
-1.8312766e-16
0.00097036565
0
0.001212708
0
0.0014518754
-1.6435763e-16
0.0016804813
0
0.0018931046
2.4869254e-19
0.002086255
0
0.0022581664
0
0.0024084887
-1.2104619e-16
0.0025379417
1.1219145e-16
0.002647978
1.0370777e-16
0.0027404877
0
0.0028175606
0
0.0028813077
0
0.0029337401
0
0.002976694
0
0.0030117941
6.0298841e-17
0.0030404418
0
0
0.0030638233
5.9711251e-05
0
0.00016148487
-1.9109806e-16
0.00030604681
0
0.00048498367
-1.8742911e-16
0.00068856408
0
0.00090670055
1.7802336e-16
0.0011298237
0
0.0013495629
0
0.0015591787
1.5643812e-16
0.0017537435
0
0.0019301063
0
0.0020867006
1.3025105e-16
0.0022232595
0
0.0023404959
0
0.0024397925
-1.0355953e-16
0.00252293
0
0.0025918675
0
0.0026485791
0
0.0026949412
0
0.0027326647
0
0.0027632604
0
0.0027880291
-5.4585663e-17
-2.4946668e-20
0.0028080689
5.8782993e-05
1.9122142e-16
0.00015425042
0
0.00028852325
-1.8989433e-16
0.00045386573
0
0.00064135464
0
0.00084175814
0
0.0010463332
-1.7176929e-16
0.0012474453
1.6478074e-16
0.0014389608
0
0.0016164094
0
0.0017769491
0
0.0019191887
1.3026026e-16
0.0020429255
1.7505037e-19
0.0021488517
0
0.0022382703
0
0.0023128454
1.0498856e-19
0.0023744017
0
0.0024247733
0
0.002465702
0
0.0024987735
0
0.0025253867
-6.0179996e-17
0.0025467441
0
0.0025638591
0
0.0001264087
1.2092608e-20
0.000134153
1.8939998e-16
0.00014133283
0
0.00014793214
0
0.00015394818
-8.4517016e-17
0.00015938941
-8.0985697e-17
0.00016427348
7.7429348e-17
0.00016862519
0
0.00017247462
0
0.00017585555
4.9391699e-21
0.00017880391
0
0.00018135659
6.0032819e-17
0.00018355045
1.1350643e-16
0.00018542149
-1.0713559e-16
0.00018700428
0
0.00018833146
0
0.00018943354
-4.4664268e-17
0.00019033863
0
0.00019107244
1.0720196e-21
0.00019165825
0
0.00019211698
6.8937639e-17
0.00019246728
3.222546e-17
0.0001927257
3.0100909e-17
0.00019290677
2.8094008e-17
0.00019302325
0
0.00019308623
2.4417044e-17
2.7883344e-23
0.00019310532
0.00044292804
2.0023203e-20
0.00046320677
9.4910909e-17
0.00048189377
9.1595829e-17
0.00049898059
8.8174356e-17
0.00051448757
8.4675512e-17
0.000528459
1.2606714e-20
0.00054095835
1.1254834e-20
0.00055206365
-7.3952153e-17
0.00056186332
-7.0405225e-17
0.0005704524
1.53954e-20
0.00057792928
6.6932962e-21
0.00058439301
5.7807117e-21
0.00058994108
5.6800226e-17
0.0005946677
-5.3603471e-17
0.00059866252
5.0520679e-17
0.00060200973
4.7548885e-17
0.00060478747
-8.9371712e-17
0.00060706756
4.1951393e-17
0.00060891542
1.6466707e-21
0.00061039009
1.3138452e-21
0.00061154457
3.4479463e-17
0.00061242599
3.2233325e-17
0.0006130761
5.7897346e-22
0.00061353159
2.8097663e-17
0.00061382458
2.6203069e-17
0.00061398299
-4.8836348e-17
4.2746165e-23
0.000614031
0.0008891932
2.7995662e-20
0.00091888296
9.5079898e-17
0.00094606737
2.354051e-20
0.00097078564
-8.828956e-17
0.00099310996
0
0.0010131392
8.123503e-17
0.001030993
0
0.0010468056
-7.4052328e-17
0.0010607215
-7.0492886e-17
0.0010728899
0
0.0010834615
6.351809e-17
0.001092585
7.8269982e-21
0.0011004049
6.7054587e-21
0.0011070588
5.3651807e-17
0.0011126767
0
0.0011173799
4.0289934e-21
0.0011212802
3.3404209e-21
0.0011244799
2.7398706e-21
0.0011270718
3.9351922e-17
0.0011291394
7.3716055e-17
0.0011307577
0
0.0011319929
-3.2238534e-17
0.0011329038
3.0111704e-17
0.0011335419
5.4613781e-22
0.0011339523
2.6205149e-17
0.0011341742
2.441958e-17
5.7546687e-23
0.0011342415
0.0014445021
0
0.0014829688
0
0.0015180659
2.9870557e-20
0.0015498806
8.8458043e-17
0.0015785363
0
0.0016041852
-8.1329824e-17
0.0016270009
1.9347469e-20
0.0016471722
1.7093861e-20
0.0016648961
7.0583876e-17
0.0016803736
1.3102517e-20
0.0016938046
0
0.0017053845
0
0.0017153013
-5.6880654e-17
0.0017237335
7.1287741e-21
0.0017308487
5.0584118e-17
0.0017368023
5.0313047e-21
0.0017417375
4.1700145e-21
0.0017457848
4.1987324e-17
0.0017490624
3.9368932e-17
0.0017516766
0
0.0017537221
1.7277362e-21
0.0017552833
3.2246361e-17
0.0017564344
3.0117666e-17
0.0017572408
2.8104798e-17
0.0017577594
0
0.0017580398
2.4421032e-17
7.1754767e-23
0.0017581248
0.002060503
-9.8621624e-17
0.0021066589
0
0.0021486738
0
0.0021866809
0
0.0022208521
0
0.002251389
8.1434081e-17
0.0022785149
-7.7825487e-17
0.0023024673
1.4846034e-16
0.0023234913
0
0.0023418337
6.7102976e-17
0.0023577383
-6.3628015e-17
0.0023714414
0
0.0023831698
-9.941131e-21
0.0023931375
5.3708733e-17
0.0024015448
0
0.0024085772
0
0.0024144049
4.4752058e-17
0.0024191831
4.199954e-17
0.0024230518
-3.9376041e-17
0.0024261368
0
0.0024285506
0
0.0024303926
-3.2252612e-17
0.0024317508
0
0.0024327021
-2.8107219e-17
0.002433314
2.6209471e-17
0.0024336447
-2.4421637e-17
-2.2741321e-17
0.002433745
0.0026873704
4.9542211e-20
0.0027397735
-9.5539798e-17
0.0027873916
-9.2161855e-17
0.0028304002
8.8718313e-17
0.0028690145
0
0.0029034797
2.9692476e-20
0.002934062
7.7907549e-17
0.002961041
0
0.0029847021
-7.0702067e-17
0.0030053304
1.7744688e-20
0.0030232059
-6.3674961e-17
0.0030385991
6.0282801e-17
0.0030517679
-1.1391878e-16
0.0030629555
0
0.0030723886
-5.0630217e-17
0.0030802769
4.7644142e-17
0.0030868125
4.4769634e-17
0.0030921699
4.2017976e-17
0.003096507
0
0.0030999652
-3.6889128e-17
0.0031026707
3.4511995e-17
0.0031047351
0
0.0031062572
3.0125374e-17
0.0031073233
-2.8109961e-17
0.0031080089
0
0.0031083796
3.1834881e-22
0
0.0031084919
0.0032796767
0
0.0033366577
-5.0361901e-20
0.0033883596
9.2321325e-17
0.0034349952
0
0.0034768167
8.5217094e-17
0.0035141054
8.1606699e-17
0.0035471625
0
0.003576301
0
0.0036018377
-1.4153296e-16
0.0036240875
6.7223022e-17
0.0036433577
0
0.0036599441
6.0318154e-17
0.0036741282
-5.6982682e-17
0.0036861741
5.3762336e-17
0.0036963281
-5.0659748e-17
0.0037048172
0
0.0037118491
0
0.0037176125
0
0.0037222776
-7.8797347e-17
0.003725997
-3.689691e-17
0.0037289064
-3.4518077e-17
0.0037311264
0
0.0037327631
-3.0128792e-17
0.0037339094
0
0.0037346466
0
0.0037350452
0
0
0.0037351659
0.0038007701
0
0.0038605682
9.5771024e-17
0.0039147529
0
0.0039635686
0
0.0040072971
0
0.0040462479
8.1670632e-17
0.0040807485
0
0.0041111359
0
0.0041377492
0
0.0041609232
0
0.0041809835
0
0.0041982424
0
0.0042129957
5.7005526e-17
0.0042255212
-5.3781641e-17
0.0042360764
-1.0134362e-16
0.0042448989
0
0.0042522056
0
0.0042581932
0
0.0042630392
-3.9403985e-17
0.0042669024
7.3802505e-17
0.0042699241
0
0.0042722296
0
0.0042739292
3.0129924e-17
0.0042751196
0
0.0042758851
2.6213352e-17
0.0042762989
-2.442439e-17
0
0.0042764243
0.0042251993
0
0.0042860897
0
0.0043411903
9.2491119e-17
0.0043907704
-4.6959813e-20
0.0044351347
0
0.0044746127
0
0.0045095492
0
0.0045402962
-7.4466546e-17
0.0045672057
0
0.0045906233
6.7266442e-17
0.0046108836
0
0.0046283065
6.0349686e-17
0.0046431942
5.7035899e-17
0.0046558294
0
0.004666474
0
0.004675369
4.7677606e-17
0.0046827343
4.4797253e-17
0.004688769
0
0.0046936523
0
0.0046975448
-3.6907299e-17
0.0047005892
0
0.0047029119
0
0.0047046241
0
0.0047058232
1.1310795e-21
0.0047065943
2.6214165e-17
0.0047070112
0
0
0.0047071375
0.0045391999
0
0.0045995999
0
0.0046541791
0
0.0047032263
0
0.0047470617
0
0.004786027
8.1787158e-17
0.0048204766
3.4091097e-20
0.0048507689
2.9963588e-20
0.0048772601
0
0.0049002981
6.7305336e-17
0.0049202182
0
0.0049373398
-6.0361177e-17
0.0049519635
-5.703149e-17
0.0049643698
-5.3803447e-17
0.0049748183
0
0.0049835471
0
0.0049907731
4.4808924e-17
0.0049966925
0
0.0050014818
0
0.0050052989
0
0.005008284
-3.452515e-17
0.0050105613
-3.2268161e-17
0.0050122399
3.0134411e-17
0.0050134155
1.1598205e-21
0.0050141715
2.621537e-17
0.0050145801
-2.4424702e-17
2.2742288e-17
0.005014704
0.0047396166
0
0.0047981627
0
0.0048509833
0
0.0048983807
0
0.0049406848
-8.5397e-17
0.004978243
0
0.0050114118
-7.8112145e-17
0.0050405488
0
0.0050660071
0
0.0050881295
0
0.0051072447
0
0.0051236644
6.0382075e-17
0.0051376814
0
0.0051495677
0
0.0051595744
0
0.0051679314
4.7693373e-17
0.0051748478
4.4810206e-17
0.0051805122
0
0.0051850945
0
0.005188746
3.7902218e-21
0.0051916013
0
0.0051937793
-3.2268503e-17
0.0051953847
0
0.0051965089
0
0.0051972319
0
0.0051976226
2.4425167e-17
0
0.0051977411
0.0048318213
4.9656819e-17
0.0048874148
-4.7941951e-17
0.0049374803
-4.6258703e-17
0.0049823291
4.452059e-17
0.0050222955
2.2062007e-20
0.0050577269
3.9086312e-20
0.0050889762
3.9089247e-17
0.0051163944
3.0204633e-20
0.0051403252
-3.5412423e-17
0.0051611004
3.3665267e-17
0.0051790365
9.863777e-21
0.0051944322
-6.0361509e-17
0.0052075665
2.8522873e-17
0.0052186982
2.6913709e-17
0.0052280652
5.1443875e-21
0.0052358848
-2.3841212e-17
0.0052423543
2.2404092e-17
0.0052476513
2.9074921e-21
0.0052519353
-1.9703425e-17
0.0052553486
1.8730654e-21
0.0052580172
-1.7260903e-17
0.0052600526
-1.6133916e-17
0.0052615527
8.2304071e-22
0.0052626031
-1.4057355e-17
0.0052632786
3.7056478e-22
0.0052636437
2.0030786e-22
6.0695314e-23
0.0052637543
0.0048271993
4.9686055e-17
0.0048790229
4.7997376e-17
0.0049255928
5.4817786e-20
0.0049672256
2.4475652e-20
0.0050042556
2.1746769e-20
0.0050370262
1.9226405e-20
0.005065882
3.3828602e-20
0.0050911629
1.4806572e-20
0.0051131991
-3.5405797e-17
0.0051323067
2.2350206e-20
0.0051487858
3.1905205e-17
0.0051629177
8.2557058e-21
0.0051749642
2.8518123e-17
0.0051851668
5.9551086e-21
0.0051937468
5.0063564e-21
0.0052009059
2.3842459e-17
0.0052068263
-2.2394623e-17
0.0052116721
2.8253582e-21
0.00521559
2.2840021e-21
0.0052187109
1.845503e-17
0.0052211504
3.4525461e-17
0.0052230108
1.0841906e-21
0.0052243818
7.9891702e-22
0.0052253418
5.5938336e-22
0.005225959
-1.3106982e-17
0.0052262926
1.9440053e-22
1.1371087e-17
0.0052263937
0.0047406734
0
0.0047881837
4.7952043e-17
0.0048307668
4.6263409e-17
0.0048687415
2.3865762e-20
0.0049024391
4.2675824e-17
0.0049321956
0
0.0049583444
3.904998e-17
0.0049812114
0
0.0050011098
1.2434054e-20
0.0050183378
0
0.0050331757
0
0.0050458849
0
0.0050567073
0
0.0050658649
-5.7024187e-21
0.0050735602
-2.5333451e-17
0.0050799767
-2.3833705e-17
0.0050852801
0
0.0050896189
0
0.0050931256
0
0.0050959179
1.7355945e-21
0.0050981002
3.4520704e-17
0.0050997641
0
0.0051009901
0
0.0051018484
-1.4057393e-17
0.0051024003
0
0.0051026986
-1.2211946e-17
-1.137096e-17
0.0051027889
0.0045885788
4.9647254e-17
0.0046314811
0
0.0046698129
0
0.0047038926
4.4474329e-17
0.0047340461
0
0.0047606001
1.7857662e-20
0.004783875
0
0.0048041804
1.361652e-20
0.0048218114
1.1808155e-20
0.0048370462
-3.3611548e-17
0.0048501443
0
0.0048613457
3.0156231e-17
0.0048708709
-2.8494155e-17
0.0048789212
5.3664508e-21
0.0048856789
0
0.0048913087
0
0.0048959584
-2.2389159e-17
0.00489976
0
0.0049028309
1.970013e-17
0.0049052753
1.8448193e-17
0.0049071849
-1.7258786e-17
0.0049086406
9.6758253e-22
0.0049097129
-1.5063504e-17
0.0049104636
0
0.0049109462
-1.3106333e-17
0.004911207
-2.4423468e-17
5.2514648e-23
0.0049112861
0.0043870389
3.1262145e-20
0.0044252514
2.7903865e-20
0.0044592616
4.6235915e-17
0.0044893852
2.1902153e-20
0.0045159415
1.9268065e-20
0.0045392463
4.0847894e-17
0.004559606
-3.8977575e-17
0.0045773136
1.2774129e-20
0.0045926453
1.1041528e-20
0.0046058588
0
0.0046171923
8.1379928e-21
0.0046268643
6.9361161e-21
0.0046350736
2.8488238e-17
0.0046420004
2.6882546e-17
0.0046478068
0
0.0046526382
2.3827153e-17
0.0046566244
-2.2380127e-17
0.0046598807
2.323865e-21
0.0046625093
-1.9692043e-17
0.0046646004
1.491139e-21
0.0046662334
1.1640877e-21
0.0046674776
-1.6127302e-17
0.004668394
1.5062671e-17
0.0046690354
9.1400002e-22
0.0046694477
2.9372102e-22
0.0046696705
1.2211601e-17
4.8091682e-23
0.004669738
0.0041508691
0
0.0041844816
0
0.0042142566
0
0.0042405056
0
0.00426354
0
0.0042836641
0
0.0043011702
-3.8979641e-17
0.0043163345
0
0.0043294145
0
0.0043406482
6.7157745e-17
0.0043502528
0
0.0043584258
3.0127119e-17
0.004365345
0
0.0043711701
2.6860844e-17
0.0043760434
-2.5311215e-17
0.0043800915
0
0.0043834266
2.2378375e-17
0.0043861477
-4.2004747e-17
0.0043883421
-1.9690774e-17
0.0043900864
1.8439355e-17
0.0043914476
0
0.0043924843
0
0.0043932475
0
0.0043937815
-1.405416e-17
0.0043941247
-1.3104562e-17
0.0043943102
0
-1.1370632e-17
0.0043943664
0.0038929494
-4.9483853e-17
0.0039221814
0
0.0039479266
-4.6095909e-17
0.0039704909
1.9247095e-20
0.0039901768
-4.2565859e-17
0.004007277
1.4487504e-20
0.0040220696
1.2490739e-20
0.0040348148
0
0.0040457525
0
0.0040551015
-3.3552512e-17
0.0040630597
3.1818046e-17
0.0040698045
-3.0109766e-17
0.0040754941
0
0.0040802686
3.9560766e-21
0.0040842517
2.5299505e-17
0.0040875523
2.3804885e-17
0.0040902658
2.2370058e-17
0.004092476
-2.0994714e-17
0.0040942557
1.4646323e-21
0.0040956687
1.1619001e-21
0.0040967703
9.0529866e-22
0.0040976087
0
0.0040982255
0
0.0040986569
3.5416065e-22
0.0040989341
-1.3103691e-17
0.0040990839
1.2289964e-22
1.1370526e-17
0.0040991293
0.0036239682
4.947169e-17
0.0036491297
4.7816183e-17
0.003671134
-4.607987e-17
0.0036902797
1.7766829e-20
0.0037068598
1.5319153e-20
0.0037211554
0
0.003733431
-3.89058e-17
0.0037439314
3.7104772e-17
0.0037528801
0
0.0037604786
0
0.0037669066
-3.1790194e-17
0.0037723233
-3.0090991e-17
0.0037768687
4.0635646e-21
0.0037806652
5.3673654e-17
0.0037838192
2.5286778e-17
0.0037864232
2.3087229e-21
0.0037885574
1.8881703e-21
0.003790291
2.0989034e-17
0.003791684
0
0.0037927878
1.8431271e-17
0.0037936472
-1.7244728e-17
0.0037943004
0
0.0037947807
4.2194097e-22
0.0037951164
2.9480049e-22
0.0037953319
-1.3102739e-17
0.0037954484
1.2209978e-17
0
0.0037954836
0.0033524296
-4.9404729e-17
0.0033738865
0
0.0033924904
-4.6040595e-17
0.0034085315
0
0.0034222926
0
0.0034340429
0
0.0034440339
0
0.0034524964
0
0.0034596385
0
0.0034656459
-3.3503797e-17
0.0034706823
-3.1767783e-17
0.0034748904
-3.0071108e-17
0.0034783938
0
0.003481299
0
0.003483697
2.5273223e-17
0.0034856656
0
0.003487271
0
0.0034885695
-2.0979793e-17
0.0034896091
0
0.0034904305
0
0.0034910685
0
0.0034915526
-1.6117353e-17
0.0034919079
3.3129013e-22
0.003492156
0
0.0034923153
0
0.0034924013
-1.2209323e-17
1.1370189e-17
0.0034924273
0.0030848254
0
0.0031029707
0
0.0031185404
0
0.0031318147
0
0.0031430656
0
0.0031525507
0
0.0031605089
-3.8840041e-17
0.0031671574
0
0.003172691
0
0.003177281
-3.3477938e-17
0.0031810768
0
0.0031842067
0
0.0031867799
2.8404065e-17
0.0031888889
2.1379316e-21
0.003190611
0
0.0031920111
4.7539553e-17
0.0031931432
0
0.0031940521
0
0.0031947752
0
0.0031953435
0
0.003195783
-1.7236546e-17
0.0031961153
-1.6114131e-17
0.0031963587
-1.505162e-17
0.0031965283
-1.404766e-17
0.003196637
0
0.0031966956
0
0
0.0031967134
0.0028258954
4.9325176e-17
0.0028411261
-4.7691798e-17
0.002854032
0
0.0028648822
-4.4219263e-17
0.002873937
0
0.0028814421
-4.0624803e-17
0.0028876242
3.8806566e-17
0.0028926882
0
0.0028968164
0
0.0029001675
0
0.0029028783
-3.1723751e-17
0.0029050644
0
0.0029068228
0
0.0029082337
0
0.0029093629
0
0.002910264
0
0.0029109803
-2.233061e-17
0.0029115467
-2.0963808e-17
0.0029119914
0
0.0029123371
0
0.0029126019
0
0.0029128007
0
0.0029129455
0
0.0029130459
-1.4046006e-17
0.0029131101
0
0.0029131447
-1.2208162e-17
0
0.0029131551
0.0025789179
4.9307695e-17
0.0025916186
0
0.0026022199
0
0.0026109787
0
0.0026181432
4.2392766e-17
0.0026239466
-4.0580912e-17
0.002628604
3.8779292e-17
0.0026323086
0
0.0026352312
-3.5186057e-17
0.0026375193
2.7065602e-21
0.0026392987
-3.1696765e-17
0.0026406743
3.0009222e-17
0.0026417323
0
0.0026425428
0
0.0026431615
-2.522876e-17
0.0026436326
0
0.0026439904
0
0.0026442614
0
0.0026444658
0
0.0026446192
-1.8408632e-17
0.0026447332
0
0.0026448166
1.6107356e-17
0.0026448761
3.2663663e-23
0.0026449167
1.404413e-17
0.0026449424
0
0.0026449562
1.2207507e-17
0.0026449603
0
0.00019310531
-3.0492038e-12
0.00019310531
0
0.00019310531
0
0.00019310531
0
0.00019310531
0
0.00019310531
0
0.00019310531
2.2293262e-17
0.00019310531
0
0.00019310531
0
0.00019310531
0
0.00019310531
0
0.00019310531
0
0.00019310531
0
0.00019310531
0
0.00019310531
0
0.00019310531
0
0.00019310531
0
0.00019310531
0
0.00019310531
0
0.00019310531
0
0.00019310531
0
0.00019310531
0
0.00019310531
0
0.00019310531
0
0.00019310531
0
0.00019310531
0
0.00019310531
0
0.00019310531
-2.2293262e-17
0.00019310531
0
0.00019310531
0
0.00019310531
0
0.00019310531
0
0.00019310531
0
3.0491815e-12
0.00019310532
0.00061403097
-1.007312e-11
0.00061403097
0
0.00061403097
0
0.00061403097
0
0.00061403097
0
0.00061403097
2.5934608e-32
0.00061403097
0
0.00061403097
0
0.00061403097
0
0.00061403097
0
0.00061403097
0
0.00061403097
-1.3043136e-32
0.00061403097
0
0.00061403097
0
0.00061403097
0
0.00061403097
-2.2293262e-17
0.00061403097
2.2293262e-17
0.00061403097
-2.2293262e-17
0.00061403097
0
0.00061403097
0
0.00061403097
1.2891472e-32
0.00061403097
0
0.00061403097
0
0.00061403097
0
0.00061403097
0
0.00061403097
0
0.00061403097
2.2293262e-17
0.00061403097
0
0.00061403097
0
0.00061403097
0
0.00061403097
0
0.00061403097
0
0.00061403097
0
1.007312e-11
0.000614031
0.0011342414
-2.8924109e-11
0.0011342414
0
0.0011342414
0
0.0011342414
0
0.0011342414
0
0.0011342414
2.2293262e-17
0.0011342414
0
0.0011342414
0
0.0011342414
0
0.0011342414
0
0.0011342414
2.2293262e-17
0.0011342414
0
0.0011342414
0
0.0011342414
0
0.0011342414
0
0.0011342414
2.2293262e-17
0.0011342414
-6.6732324e-33
0.0011342414
2.2293262e-17
0.0011342414
2.2293262e-17
0.0011342414
-2.2293262e-17
0.0011342414
0
0.0011342414
2.2293262e-17
0.0011342414
0
0.0011342414
0
0.0011342414
0
0.0011342414
0
0.0011342414
5.1869215e-32
0.0011342414
0
0.0011342414
0
0.0011342414
0
0.0011342414
0
0.0011342414
0
0.0011342414
0
2.8924086e-11
0.0011342415
0.0017581247
-5.2047589e-11
0.0017581247
0
0.0017581247
0
0.0017581247
0
0.0017581247
-2.2293262e-17
0.0017581247
0
0.0017581247
-2.2293262e-17
0.0017581247
-2.2293262e-17
0.0017581247
0
0.0017581247
-2.2293262e-17
0.0017581247
0
0.0017581247
0
0.0017581247
2.2293262e-17
0.0017581247
0
0.0017581247
0
0.0017581247
2.2293262e-17
0.0017581247
0
0.0017581247
1.941304e-32
0.0017581247
0
0.0017581247
-3.8826079e-32
0.0017581247
-2.2293262e-17
0.0017581247
2.2293262e-17
0.0017581247
2.2293262e-17
0.0017581247
0
0.0017581247
2.2293262e-17
0.0017581247
2.2293262e-17
0.0017581247
0
0.0017581247
0
0.0017581247
0
0.0017581247
0
0.0017581247
0
0.0017581247
0
0.0017581247
0
5.2047589e-11
0.0017581248
0.0024337449
-8.3148531e-11
0.0024337449
0
0.0024337449
0
0.0024337449
-4.4586523e-17
0.0024337449
0
0.0024337449
0
0.0024337449
0
0.0024337449
0
0.0024337449
0
0.0024337449
0
0.0024337449
0
0.0024337449
2.2293262e-17
0.0024337449
0
0.0024337449
0
0.0024337449
0
0.0024337449
-2.2293262e-17
0.0024337449
-2.2293262e-17
0.0024337449
0
0.0024337449
0
0.0024337449
-2.2293262e-17
0.0024337449
-2.2293262e-17
0.0024337449
0
0.0024337449
0
0.0024337449
-2.2293262e-17
0.0024337449
0
0.0024337449
0
0.0024337449
0
0.0024337449
0
0.0024337449
0
0.0024337449
0
0.0024337449
0
0.0024337449
0
0.0024337449
0
8.3148486e-11
0.002433745
0.0031084918
-1.2195474e-10
0.0031084918
0
0.0031084918
0
0.0031084918
0
0.0031084918
0
0.0031084918
0
0.0031084918
0
0.0031084918
2.2293262e-17
0.0031084918
0
0.0031084918
0
0.0031084918
0
0.0031084918
0
0.0031084918
0
0.0031084918
0
0.0031084918
4.4586523e-17
0.0031084918
0
0.0031084918
-2.5479614e-32
0.0031084918
0
0.0031084918
0
0.0031084918
0
0.0031084918
0
0.0031084918
0
0.0031084918
0
0.0031084918
-2.6086272e-32
0.0031084918
0
0.0031084918
2.2293262e-17
0.0031084918
0
0.0031084918
0
0.0031084918
0
0.0031084918
0
0.0031084918
0
0.0031084918
0
0.0031084918
0
1.2195472e-10
0.0031084919
0.0037351659
-1.8630456e-10
0.0037351659
0
0.0037351659
0
0.0037351659
0
0.0037351659
0
0.0037351659
0
0.0037351659
0
0.0037351659
-2.2293262e-17
0.0037351659
0
0.0037351659
0
0.0037351659
0
0.0037351659
0
0.0037351659
0
0.0037351659
0
0.0037351659
0
0.0037351659
0
0.0037351659