/*--------------------------------*- C++ -*----------------------------------*\
  =========                 |
  \\      /  F ield         | OpenFOAM: The Open Source CFD Toolbox
   \\    /   O peration     | Website:  https://openfoam.org
    \\  /    A nd           | Version:  8
     \\/     M anipulation  |
\*---------------------------------------------------------------------------*/
FoamFile
{
    version     2.0;
    format      ascii;
    class       surfaceVectorField;
    location    "10";
    object      Uf;
}
// * * * * * * * * * * * * * * * * * * * * * * * * * * * * * * * * * * * * * //

dimensions      [0 1 -1 0 0 0 0];

internalField   nonuniform List<vector> 
36597
(
(2.0000251 -0.00055206599 0)
(2.0002505 -0.00081653259 0)
(2.0000126 -0.00064544077 0)
(2.000094 -0.0013706122 0)
(2.0000134 -0.0007992762 0)
(2.0001571 -0.0014996758 0)
(2.0000079 -0.00087769736 0)
(2.0000817 -0.0018219542 0)
(2.0000086 -0.00097989075 0)
(2.0001093 -0.0019792479 0)
(2.0000057 -0.001046679 0)
(2.0000738 -0.0021951738 0)
(2.0000051 -0.0011148623 0)
(2.0000783 -0.0023350525 0)
(2.000003 -0.0011628034 0)
(2.0000576 -0.0024806245 0)
(2.0000017 -0.0012025621 0)
(2.0000502 -0.0025814768 0)
(1.9999997 -0.001227322 0)
(2.000033 -0.0026666605 0)
(1.9999976 -0.0012409783 0)
(2.0000193 -0.0027190833 0)
(1.9999951 -0.0012423276 0)
(2.000002 -0.0027494258 0)
(1.9999927 -0.0012333762 0)
(1.9999855 -0.0027539588 0)
(1.9999906 -0.001214924 5.0119411e-24)
(1.9999679 -0.0027378384 -1.770846e-23)
(1.9999887 -0.001188605 1.0248308e-23)
(1.9999505 -0.0027022295 4.3368452e-23)
(1.9999871 -0.0011558668 5.3484543e-24)
(1.9999333 -0.0026509074 -1.566904e-23)
(1.9999856 -0.0011182578 -1.3129032e-23)
(1.9999168 -0.0025867467 1.7479347e-25)
(1.9999842 -0.0010772044 -1.2162756e-23)
(1.9999009 -0.0025130316 -1.2693629e-23)
(1.9999829 -0.0010340176 0)
(1.999886 -0.0024326385 0)
(1.9999817 -0.00098983314 -3.6236184e-23)
(1.9998721 -0.002348219 6.3302222e-23)
(1.9999807 -0.00094560827 -3.3188221e-23)
(1.9998593 -0.0022620315 -3.3908838e-23)
(1.9999797 -0.00090211309 8.7870341e-23)
(1.9998477 -0.0021759501 -7.6725584e-23)
(1.9998371 -0.002091473 -1.2688875e-24)
(1.9999787 -0.00085995026 4.187931e-23)
(2.0003269 -0.001750611 0)
(2.0008226 -0.0017993716 0)
(2.0002503 -0.0021437297 0)
(2.0004872 -0.0029071248 0)
(2.0002338 -0.0025686801 0)
(2.0005878 -0.0031611789 0)
(2.0001933 -0.0028861384 0)
(2.0004101 -0.003858611 0)
(2.0001821 -0.0032076912 0)
(2.0004508 -0.0041900548 0)
(2.0001543 -0.0034637971 0)
(2.0003549 -0.0046718465 0)
(2.0001369 -0.003699149 0)
(2.0003468 -0.0049809943 0)
(2.0001102 -0.0038851009 0)
(2.0002793 -0.0053157426 0)
(2.0000852 -0.0040368096 0)
(2.0002403 -0.0055508339 -2.8442369e-24)
(2.0000551 -0.0041449606 0)
(2.0001762 -0.0057595509 2.9989692e-24)
(2.0000244 -0.0042152802 0)
(2.000118 -0.0058974824 1.3577631e-23)
(1.9999915 -0.0042467145 0)
(2.0000489 -0.0059910276 -1.4450413e-23)
(1.9999581 -0.0042437428 -1.8292874e-23)
(1.9999804 -0.0060288194 -3.2678992e-23)
(1.9999238 -0.0042092826 2.2951188e-23)
(1.999908 -0.006022982 -1.8392592e-23)
(1.9998898 -0.0041479691 1.504126e-23)
(1.9998358 -0.0059744789 3.7367337e-23)
(1.9998565 -0.0040644394 -2.0116043e-23)
(1.9997642 -0.0058915748 2.1921511e-23)
(1.9998244 -0.0039635892 0)
(1.9996948 -0.0057798816 0)
(1.9997941 -0.0038500471 0)
(1.9996285 -0.0056464161 -5.3026871e-23)
(1.9997656 -0.0037280774 6.6014525e-23)
(1.999566 -0.0054971527 5.7797407e-23)
(1.9997393 -0.0036014177 6.0691867e-23)
(1.9995078 -0.005337749 6.2707964e-23)
(1.9997152 -0.0034732399 -7.9400577e-23)
(1.9994542 -0.005173007 1.4314783e-22)
(1.9996933 -0.0033461319 -1.6135982e-22)
(1.9994052 -0.0050069478 -2.3180381e-22)
(1.9993609 -0.0048428621 -2.5778774e-22)
(1.9996735 -0.003222128 -2.6670552e-26)
(2.0009684 -0.0031029514 0)
(2.0016868 -0.0029244456 0)
(2.0008135 -0.0038082886 0)
(2.0011829 -0.0045782426 0)
(2.0007528 -0.0045155425 0)
(2.0012951 -0.0049561036 0)
(2.0006599 -0.0051037321 0)
(2.0010102 -0.0060567333 0)
(2.0006151 -0.0056730812 0)
(2.0010473 -0.0065726085 0)
(2.0005414 -0.0061556508 0)
(2.0008772 -0.0073568671 0)
(2.000483 -0.0065939332 0)
(2.0008399 -0.0078581886 -1.2196906e-24)
(2.0004049 -0.0069566797 -2.8944794e-24)
(2.0007059 -0.0084203769 -4.0254907e-24)
(2.000327 -0.0072587824 3.090649e-25)
(2.0006131 -0.0088218691 1.4283762e-23)
(2.0002362 -0.0074887503 1.6779802e-23)
(2.0004752 -0.0091926454 -9.197028e-24)
(2.0001408 -0.0076520969 -1.7623697e-24)
(2.0003426 -0.0094504921 4.0973318e-23)
(2.0000375 -0.0077475485 -4.7457848e-23)
(2.0001878 -0.0096421711 -4.3611428e-23)
(1.9999311 -0.0077815657 -3.2137474e-23)
(2.0000318 -0.0097443767 -6.5519756e-23)
(1.9998221 -0.0077589804 -1.6241697e-24)
(1.9998669 -0.0097780854 -1.763409e-24)
(1.9997135 -0.0076873438 4.3475376e-23)
(1.9997013 -0.0097426529 3.87698e-23)
(1.9996069 -0.0075745801 4.073678e-23)
(1.9995365 -0.0096514127 4.211269e-23)
(1.9995044 -0.0074290922 -5.4981038e-23)
(1.9993765 -0.0095123558 -9.8704837e-23)
(1.9994071 -0.0072589551 9.7272483e-24)
(1.9992233 -0.0093365587 5.5146317e-23)
(1.999316 -0.0070716561 5.4785214e-23)
(1.9990787 -0.0091331932 5.6881486e-23)
(1.9992315 -0.0068738168 1.4834885e-22)
(1.9989439 -0.0089112243 0)
(1.999154 -0.0066710936 -2.7868293e-23)
(1.9988196 -0.0086782489 2.8725129e-22)
(1.9990834 -0.006468143 -3.2843449e-22)
(1.9987058 -0.0084407112 -3.1442356e-22)
(1.9986026 -0.0082039641 -1.7083119e-22)
(1.9990196 -0.0062686716 -2.028759e-26)
(2.001892 -0.0045678358 0)
(2.002815 -0.0041538223 0)
(2.0016583 -0.0055826615 0)
(2.0021641 -0.0063349128 0)
(2.0015435 -0.0065750763 0)
(2.0022677 -0.0068339024 0)
(2.0013925 -0.0074473257 0)
(2.0018825 -0.0083454768 0)
(2.0013019 -0.0082801731 0)
(2.0019025 -0.0090501922 0)
(2.0011708 -0.0090124213 -1.2305949e-24)
(2.0016541 -0.010157659 0)
(2.0010564 -0.0096795906 -5.2621084e-24)
(2.0015749 -0.010867689 -1.1922896e-24)
(2.0009092 -0.010250455 1.3464223e-23)
(2.0013616 -0.011686505 -3.9370305e-24)
(2.0007561 -0.010735338 4.1318856e-24)
(2.0011962 -0.012280738 -6.7539362e-24)
(2.0005774 -0.01112063 1.6466995e-23)
(2.0009626 -0.012844925 1.283507e-23)
(2.0003865 -0.011409845 -3.566319e-24)
(2.0007288 -0.013251312 2.700846e-23)
(2.0001794 -0.011600506 -6.2281886e-23)
(2.0004566 -0.013571293 -2.8746154e-23)
(1.9999642 -0.011701195 -3.2753735e-23)
(2.0001801 -0.013765746 -3.262016e-23)
(1.9997432 -0.011717725 3.9885133e-23)
(1.9998861 -0.013865287 -9.0788489e-25)
(1.999522 -0.011660313 3.7638103e-23)
(1.9995891 -0.013866609 3.8720842e-23)
(1.9993045 -0.011540049 -1.0187525e-22)
(1.9992926 -0.013788203 0)
(1.9990945 -0.011368817 1.7522754e-23)
(1.9990036 -0.013640023 -9.6528497e-23)
(1.9988949 -0.011158241 1.0154462e-22)
(1.9987261 -0.013437388 1.0496265e-22)
(1.9987075 -0.010919221 0)
(1.9984636 -0.013192709 0)
(1.9985337 -0.010661515 1.5244771e-22)
(1.9982184 -0.012918536 0)
(1.998374 -0.010393543 -2.8616928e-23)
(1.9979917 -0.012625523 1.4368919e-22)
(1.9982284 -0.010122317 -1.5145414e-22)
(1.9977841 -0.012322843 -1.5726071e-22)
(1.9975954 -0.012018228 0)
(1.9980967 -0.0098534838 0)
(2.0030717 -0.0061063546 0)
(2.0041747 -0.005448266 0)
(2.0027624 -0.0074187256 0)
(2.0033997 -0.0081304245 0)
(2.0025919 -0.008693532 0)
(2.0034845 -0.0087485527 0)
(2.0023827 -0.0098520847 0)
(2.0030107 -0.010666406 0)
(2.0022416 -0.010956288 0)
(2.0030067 -0.011562738 -2.1520095e-24)
(2.0020485 -0.011953169 0)
(2.0026827 -0.013004372 -2.4296711e-24)
(2.0018688 -0.012868973 0)
(2.0025535 -0.013937179 1.4859442e-23)
(2.0016391 -0.013671611 -2.3724448e-23)
(2.0022542 -0.015033065 -1.0469985e-23)
(2.0013925 -0.014364254 2.4594517e-24)
(2.0020021 -0.01583989 1.1517645e-24)
(2.0011042 -0.014931015 2.3699717e-23)
(2.0016554 -0.016620994 -1.2143189e-24)
(2.0007918 -0.015372198 0)
(2.0012974 -0.017199108 0)
(2.0004507 -0.015685833 0)
(2.0008828 -0.017672257 3.1985581e-23)
(2.0000931 -0.01587732 0)
(2.0004523 -0.017981888 3.6526054e-23)
(1.9997241 -0.015955454 0)
(1.9999951 -0.018168438 2.3523881e-24)
(1.999353 -0.015932427 0)
(1.99953 -0.018225615 -8.4387047e-23)
(1.9989865 -0.015822157 0)
(1.9990635 -0.018176567 0)
(1.9986314 -0.015639889 0)
(1.9986067 -0.018032816 -1.0660028e-22)
(1.9982928 -0.015400849 0)
(1.9981665 -0.017814058 2.3409023e-22)
(1.9979742 -0.015119532 0)
(1.9977489 -0.017536 -1.2877695e-22)
(1.9976779 -0.014809095 0)
(1.9973576 -0.017215065 -1.4514548e-22)
(1.9974051 -0.014481028 0)
(1.9969952 -0.01686527 1.5864563e-22)
(1.9971562 -0.014145013 0)
(1.9966626 -0.016498861 0)
(1.9963599 -0.01612632 1.9674031e-22)
(1.9969305 -0.013808934 0)
(2.0044789 -0.0076735241 0)
(2.0057281 -0.0067634773 0)
(2.0041026 -0.0092708642 0)
(2.0048553 -0.0099130069 0)
(2.0038799 -0.010821558 0)
(2.004917 -0.01064987 0)
(2.0036172 -0.012264225 -2.1447449e-24)
(2.0043706 -0.012959342 1.0181145e-24)
(2.0034268 -0.013644226 -4.5812123e-24)
(2.0043405 -0.014050485 -3.1188736e-24)
(2.0031708 -0.014916776 1.2639253e-23)
(2.0039486 -0.015829493 -2.3474802e-24)
(2.0029202 -0.016095394 3.9178743e-24)
(2.0037657 -0.016994971 2.4606418e-23)
(2.0025999 -0.017146465 1.4093266e-23)
(2.0033786 -0.018379207 -2.0786193e-23)
(2.0022467 -0.018065787 -2.4898617e-24)
(2.0030305 -0.019413498 -1.4023849e-24)
(2.0018309 -0.018834785 -2.4129525e-23)
(2.0025586 -0.020429139 1.4794214e-24)
(2.0013734 -0.019449368 3.2499926e-23)
(2.0020577 -0.021198228 0)
(2.0008707 -0.019907311 6.7560666e-23)
(2.0014795 -0.021844111 3.0902849e-23)
(2.0003389 -0.02020829 3.6978706e-23)
(2.0008624 -0.02228818 1.0870707e-22)
(1.9997867 -0.020366113 -8.4153906e-23)
(2.0002118 -0.022579996 -7.6566721e-23)
(1.9992282 -0.020392834 -7.971362e-23)
(1.9995425 -0.02270866 9.0904112e-24)
(1.9986739 -0.020305041 -1.0936128e-22)
(1.9988679 -0.022702328 -9.7976862e-23)
(1.9981346 -0.020121218 1.4023825e-22)
(1.9982039 -0.022573186 -1.0295536e-22)
(1.9976184 -0.019860297 8.7468655e-23)
(1.9975612 -0.022345509 2.2607203e-22)
(1.9971311 -0.019540575 -2.7037527e-22)
(1.9969492 -0.022038306 -1.243588e-22)
(1.9966768 -0.019178922 2.7590885e-23)
(1.996374 -0.021672168 -1.4015828e-22)
(1.9962577 -0.018790261 1.485776e-22)
(1.9958399 -0.021264798 -1.7113577e-23)
(1.9958743 -0.018387316 2.0321476e-22)
(1.9953486 -0.020831912 1.8627773e-22)
(1.9949005 -0.020387165 1.8995484e-22)
(1.9955264 -0.017980579 -1.9544224e-22)
(2.0060735 -0.0092184353 0)
(2.007432 -0.0080548569 0)
(2.0056435 -0.011083615 0)
(2.0064906 -0.011626624 0)
(2.0053766 -0.012898377 1.008659e-24)
(2.00653 -0.012478769 0)
(2.0050692 -0.01461804 -1.0656224e-25)
(2.005929 -0.015154737 9.7714995e-25)
(2.0048342 -0.016274249 -1.0073622e-24)
(2.0058749 -0.016440456 -9.9971825e-25)
(2.0045188 -0.01782598 1.0234644e-23)
(2.0054259 -0.018548706 0)
(2.0041971 -0.019273932 -7.0618176e-25)
(2.0051909 -0.01994948 9.8434675e-24)
(2.0037831 -0.020583664 -3.4910802e-23)
(2.0047189 -0.02162502 -1.0248361e-23)
(2.003315 -0.021743315 2.5317829e-24)
(2.004271 -0.022896603 -2.3593422e-23)
(2.0027584 -0.022730809 2.4653587e-23)
(2.0036669 -0.024159329 2.4855627e-23)
(2.0021371 -0.023536843 0)
(2.0030099 -0.025135547 0)
(2.0014489 -0.024155036 7.4556034e-23)
(2.0022481 -0.025971207 -6.8727591e-23)
(2.0007135 -0.024584849 -1.0872945e-23)
(2.0014215 -0.02656949 1.4400866e-22)
(1.9999442 -0.024838319 1.7985925e-23)
(2.0005474 -0.026985647 9.5672013e-24)
(1.9991616 -0.024928323 -1.4821054e-23)
(1.9996397 -0.027201826 -4.9173579e-24)
(1.9983806 -0.024873876 -9.2100198e-23)
(1.9987198 -0.02725313 -9.4068993e-23)
(1.9976171 -0.024696315 0)
(1.9978088 -0.02715047 0)
(1.9968829 -0.024418251 0)
(1.9969228 -0.026922578 0)
(1.9961875 -0.024061939 0)
(1.9960753 -0.02659176 0)
(1.9955371 -0.023648251 -1.7507386e-22)
(1.995276 -0.026182897 0)
(1.9949353 -0.023195921 3.2780275e-23)
(1.9945313 -0.025717683 -1.6346289e-22)
(1.9943838 -0.022721134 1.7375294e-22)
(1.9938444 -0.025215685 1.7879108e-22)
(1.9932166 -0.024694194 2.2398986e-22)
(1.9938821 -0.022237406 2.0734487e-22)
(2.0078107 -0.010691753 0)
(2.0092388 -0.0092857267 0)
(2.0073432 -0.012797799 0)
(2.0082568 -0.013221845 0)
(2.0070438 -0.014855548 0)
(2.008279 -0.01417942 1.9563918e-24)
(2.0067024 -0.016837572 0)
(2.0076426 -0.017185828 -6.183052e-24)
(2.0064308 -0.018760056 0)
(2.0075708 -0.01865632 -4.7508088e-24)
(2.0060645 -0.020583537 0)
(2.0070785 -0.021073082 9.2847334e-24)
(2.0056764 -0.022299254 0)
(2.0067984 -0.022703566 -2.1433519e-23)
(2.0051707 -0.02387106 0)
(2.0062496 -0.024665438 2.2315698e-23)
(2.004585 -0.025279548 0)
(2.0057044 -0.026179079 -2.6002829e-23)
(2.0038801 -0.026498216 0)
(2.0049678 -0.027697675 -1.4377974e-24)
(2.0030817 -0.027511374 -6.9439459e-23)
(2.0041478 -0.028896118 -1.5287381e-24)
(2.0021881 -0.028307979 9.698319e-24)
(2.0031893 -0.029940735 -3.147062e-23)
(2.0012249 -0.02889092 1.5582663e-22)
(2.002143 -0.030714507 1.5017243e-22)
(2.0002086 -0.029255568 -1.3368681e-23)
(2.0010092 -0.031279071 -9.4002032e-23)
(1.9991667 -0.029427135 -8.6296659e-23)
(1.999839 -0.031606688 8.7349051e-24)
(1.9981212 -0.029421499 0)
(1.9986388 -0.031736465 -1.1218616e-22)
(1.9970931 -0.029262767 0)
(1.9974429 -0.031680008 -3.8918425e-24)
(1.9960997 -0.028976813 0)
(1.996273 -0.031468034 1.3651535e-22)
(1.9951546 -0.028589876 0)
(1.9951485 -0.0311264 0)
(1.9942674 -0.028126985 0)
(1.9940832 -0.030684027 0)
(1.993444 -0.027611 0)
(1.9930868 -0.030166776 -1.952695e-22)
(1.9926872 -0.027061975 2.3003829e-22)
(1.9921649 -0.029598375 2.1352599e-22)
(1.9913198 -0.029000199 2.1375098e-22)
(1.9919972 -0.026496888 -1.6107324e-25)
(2.0096397 -0.012056852 0)
(2.0110984 -0.010433643 0)
(2.0091519 -0.014367195 1.9208784e-24)
(2.0101001 -0.014668071 0)
(2.008833 -0.016638702 -3.9830429e-24)
(2.010113 -0.015714593 -1.3034909e-25)
(2.0084708 -0.018856753 -1.0348107e-23)
(2.0094596 -0.019006292 -3.8593372e-24)
(2.0081746 -0.021023166 4.2083019e-24)
(2.0093812 -0.020641741 -1.3734343e-23)
(2.0077699 -0.023101193 -1.2383167e-23)
(2.0088624 -0.023337337 2.8341168e-23)
(2.0073257 -0.025075044 1.394181e-24)
(2.00855 -0.025184876 -3.0752884e-23)
(2.0067368 -0.026906256 -4.7277637e-24)
(2.0079386 -0.027422088 2.1197584e-23)
(2.006038 -0.028568371 -2.6258181e-23)
(2.0073063 -0.029179047 -2.4698592e-23)
(2.005185 -0.030029915 -2.7311958e-24)
(2.0064451 -0.030960612 -1.3655905e-24)
(2.0042038 -0.031268323 3.2964087e-23)
(2.0054647 -0.032397838 -3.4787894e-23)
(2.0030933 -0.032267268 1.1297454e-22)
(2.0043072 -0.033674033 6.7934169e-23)
(2.0018841 -0.033020495 -1.0243649e-22)
(2.003027 -0.034650358 7.5957887e-23)
(2.0005976 -0.033532729 -6.6633603e-23)
(2.00163 -0.035394555 -1.6655589e-22)
(1.9992665 -0.033810288 -2.3630089e-23)
(2.0001635 -0.03586818 9.1602204e-23)
(1.9979218 -0.033878558 -1.0872047e-22)
(1.9986573 -0.036108411 -1.0650596e-22)
(1.996591 -0.033761232 1.3553358e-22)
(1.9971428 -0.036128908 1.3002184e-22)
(1.9952976 -0.033486746 1.2719174e-22)
(1.9956516 -0.035961227 -1.659195e-22)
(1.9940611 -0.033084791 0)
(1.9942097 -0.035633001 1.6355292e-22)
(1.9928952 -0.03258451 -1.99644e-22)
(1.9928367 -0.03517738 -1.8852961e-22)
(1.9918089 -0.032013038 3.732567e-23)
(1.9915466 -0.034624074 2.3141074e-22)
(1.9908072 -0.031394627 1.9803519e-22)
(1.9903482 -0.034001211 -2.7801712e-23)
(1.9892459 -0.033334631 0)
(1.9898913 -0.030750152 -2.3935176e-22)
(2.0115082 -0.013296792 0)
(2.012964 -0.011492038 0)
(2.0110148 -0.015769438 -1.9446748e-24)
(2.0119666 -0.015958706 0)
(2.0106897 -0.018220186 -1.7179524e-25)
(2.0119799 -0.017073816 -1.8780683e-24)
(2.0103227 -0.020638673 -7.1323548e-24)
(2.0113272 -0.020601642 1.9032506e-24)
(2.0100177 -0.02301989 9.9615542e-24)
(2.0112572 -0.022377428 -8.7143209e-24)
(2.0095915 -0.025329142 8.0106604e-24)
(2.0107311 -0.025318796 1.84477e-23)
(2.0091077 -0.027546401 -9.9087093e-24)
(2.010405 -0.027367319 -9.820713e-24)
(2.008451 -0.029630945 0)
(2.0097511 -0.029866382 0)
(2.0076525 -0.031550051 0)
(2.0090501 -0.031866904 0)
(2.0066613 -0.033266939 -3.342504e-23)
(2.0080816 -0.033918969 0)
(2.0055022 -0.034751485 4.2662295e-24)
(2.006954 -0.035614063 -3.1494326e-23)
(2.0041742 -0.035980607 3.3355966e-23)
(2.005606 -0.037148476 3.3534514e-23)
(2.0027104 -0.036941095 0)
(2.0040938 -0.038362999 0)
(2.001139 -0.037632396 0)
(2.0024288 -0.039325267 0)
(1.9994979 -0.038056694 0)
(2.0006538 -0.03998941 0)
(1.9978249 -0.038236832 1.3569805e-22)
(1.998821 -0.040386734 0)
(1.9961581 -0.038196878 -1.7595335e-22)
(1.996962 -0.040526372 1.2627711e-22)
(1.9945276 -0.03796639 -1.0808473e-22)
(1.9951172 -0.040444601 -2.790533e-22)
(1.9929594 -0.03757782 -4.0286102e-23)
(1.9933212 -0.040167648 1.5443885e-22)
(1.991473 -0.037063989 2.5033191e-22)
(1.9916006 -0.039731714 -1.7801668e-22)
(1.9900818 -0.036456286 1.5054405e-22)
(1.9899753 -0.039170477 3.9349562e-22)
(1.9887938 -0.035783373 -2.131761e-22)
(1.9884584 -0.038516177 -3.4536906e-22)
(1.9870572 -0.037799502 2.8266173e-22)
(1.9876119 -0.035070407 0)
(2.0133682 -0.01441394 0)
(2.0147953 -0.012467016 3.5282018e-27)
(2.0128809 -0.017009301 0)
(2.0138097 -0.017107382 -3.5368368e-27)
(2.0125634 -0.019602894 0)
(2.0138342 -0.018271519 0)
(2.0122087 -0.02218521 0)
(2.0131986 -0.021988851 0)
(2.0119133 -0.024750966 0)
(2.0131543 -0.023881228 9.6625937e-24)
(2.0114865 -0.027267194 0)
(2.0126423 -0.027037122 -2.0500468e-23)
(2.0109851 -0.02971229 0)
(2.0123252 -0.029271314 2.2553532e-23)
(2.0102834 -0.032043919 0)
(2.0116546 -0.032019633 7.7188945e-25)
(2.0094069 -0.034224219 0)
(2.0109106 -0.034264982 -1.3485127e-23)
(2.0082975 -0.03621106 0)
(2.0098607 -0.036596735 -3.2080218e-23)
(2.0069768 -0.037966542 0)
(2.0086096 -0.03857127 3.4000918e-23)
(2.0054421 -0.039459647 0)
(2.0070914 -0.04039479 0)
(2.0037284 -0.040668534 0)
(2.0053615 -0.041888122 0)
(2.0018682 -0.041583289 0)
(2.0034336 -0.043115685 0)
(1.9999073 -0.042209718 0)
(2.0013605 -0.044021119 -5.9207396e-23)
(1.9978879 -0.042548537 0)
(1.9991792 -0.044633156 6.4047707e-23)
(1.9958581 -0.04263504 0)
(1.9969642 -0.044949404 0)
(1.9938587 -0.04249465 0)
(1.9947417 -0.045005239 0)
(1.9919225 -0.042161126 0)
(1.9925607 -0.04483029 -9.7500636e-23)
(1.9900761 -0.041670362 0)
(1.990457 -0.044459909 2.1641237e-22)
(1.9883386 -0.041057639 -1.3011095e-22)
(1.9884573 -0.043930867 -1.2019353e-22)
(1.9867223 -0.040356063 1.702182e-22)
(1.9865806 -0.04327964 -1.2004945e-22)
(1.9848387 -0.04254165 2.6556777e-22)
(1.9852328 -0.039595366 1.3557029e-22)
(2.015181 -0.015424196 8.6148949e-28)
(2.0165613 -0.013372049 3.2994829e-27)
(2.0147092 -0.018110256 -3.4157641e-27)
(2.0155942 -0.018138878 -3.3097909e-27)
(2.0144124 -0.020813797 0)
(2.0156405 -0.019336457 0)
(2.0140872 -0.023528236 9.4616686e-24)
(2.0150367 -0.023204277 0)
(2.0138215 -0.026252022 -1.0345413e-23)
(2.0150366 -0.025194207 9.0444181e-24)
(2.0134172 -0.028954267 3.1907074e-24)
(2.0145608 -0.028538594 -1.9188544e-23)
(2.0129245 -0.031614096 2.2410448e-23)
(2.0142781 -0.030946509 2.1109448e-23)
(2.0122063 -0.034188534 -1.290075e-23)
(2.0136201 -0.033934206 7.2242957e-25)
(2.0112815 -0.036636068 -4.4643513e-23)
(2.0128645 -0.036427222 -1.262028e-23)
(2.0100831 -0.038909514 4.0521251e-24)
(2.0117665 -0.039049164 -3.002076e-23)
(2.0086279 -0.040963508 3.186896e-23)
(2.0104247 -0.041325799 3.1815866e-23)
(2.0069096 -0.042758239 0)
(2.008767 -0.043470947 0)
(2.0049631 -0.044262233 0)
(2.0068462 -0.045286178 0)
(2.0028231 -0.045456031 -5.9612826e-23)
(2.004676 -0.046831219 0)
(2.0005423 -0.046332571 9.6912562e-24)
(2.002312 -0.048035038 -5.5387151e-23)
(1.998172 -0.046903816 5.9400006e-23)
(1.9998049 -0.048921914 5.9911695e-23)
(1.9957639 -0.047171816 0)
(1.9972084 -0.049482422 0)
(1.9933706 -0.047179086 -9.8751254e-23)
(1.9946009 -0.049741553 0)
(1.9910362 -0.046954531 1.2942823e-22)
(1.9920131 -0.049727808 -9.1191978e-23)
(1.9887945 -0.046535368 7.7585487e-23)
(1.9894966 -0.049480071 3.2136863e-22)
(1.9866718 -0.045960384 -1.1074781e-22)
(1.987088 -0.049034953 -2.4237673e-22)
(1.984686 -0.045266835 0)
(1.9848132 -0.048432054 0)
(1.9826895 -0.0477119 0)
(1.9828469 -0.044489125 0)
(2.0169188 -0.016350196 0)
(2.0182407 -0.01422173 0)
(2.01647 -0.019102254 0)
(2.0172963 -0.019079091 0)
(2.0162062 -0.021890168 0)
(2.0173741 -0.020299857 0)
(2.0159267 -0.024712562 0)
(2.0168157 -0.024288472 0)
(2.0157111 -0.027574033 0)
(2.0168774 -0.026362928 0)
(2.0153537 -0.030446455 0)
(2.0164596 -0.029875867 -1.119964e-23)
(2.014898 -0.033311542 0)
(2.0162374 -0.032449303 1.1587539e-23)
(2.0141954 -0.036126738 0)
(2.0156226 -0.035669096 1.3707975e-23)
(2.0132571 -0.038848654 0)
(2.0148901 -0.03841318 9.4551901e-25)
(2.0120061 -0.041425714 0)
(2.0137817 -0.041335373 1.081858e-24)
(2.0104526 -0.043805931 0)
(2.0123888 -0.043935239 -3.7746919e-23)
(2.0085846 -0.04594049 0)
(2.0106312 -0.046432799 -1.3749596e-24)
(2.0064346 -0.047787639 0)
(2.0085568 -0.048611632 2.3688485e-23)
(2.0040382 -0.049316803 0)
(2.0061766 -0.050525283 0)
(2.0014508 -0.050510585 0)
(2.0035477 -0.052088019 0)
(1.9987325 -0.051365707 0)
(2.0007247 -0.053313462 0)
(1.9959449 -0.051897915 0)
(1.9977753 -0.054184903 4.3247139e-23)
(1.9931454 -0.052116331 0)
(1.9947618 -0.054720782 -4.7031761e-23)
(1.9903898 -0.052063719 1.2037437e-22)
(1.9917591 -0.054939597 -1.1284216e-22)
(1.9877238 -0.05177542 -2.2172453e-23)
(1.9888106 -0.054878945 2.3392723e-22)
(1.9851817 -0.051291456 -1.1949071e-22)
(1.9859651 -0.054578589 -1.2102659e-22)
(1.9827882 -0.050652962 0)
(1.9832588 -0.054079837 8.2567639e-23)
(1.980716 -0.053426438 -9.0368244e-23)
(1.9805587 -0.049898798 0)
(2.0185638 -0.0172116 0)
(2.0198199 -0.015026629 4.8351316e-25)
(2.0181445 -0.020011993 0)
(2.0189021 -0.019948148 1.6007207e-24)
(2.0179247 -0.022866446 0)
(2.01902 -0.021186962 -4.326704e-24)
(2.017706 -0.025780245 0)
(2.0185189 -0.025274996 7.1082706e-24)
(2.0175596 -0.028765071 -1.0960495e-23)
(2.0186585 -0.027426127 3.1656671e-25)
(2.0172728 -0.031796442 1.3465262e-24)
(2.0183188 -0.031092667 -1.0024733e-23)
(2.0168823 -0.03486008 2.4453388e-23)
(2.0181816 -0.033825845 4.7771108e-24)
(2.0162286 -0.037914864 1.3522728e-23)
(2.0176399 -0.037271561 1.2722386e-23)
(2.0153142 -0.040917424 2.0523164e-24)
(2.0169656 -0.040268751 8.774866e-25)
(2.0140516 -0.043812818 -3.6692206e-23)
(2.0158864 -0.043498445 1.0039519e-24)
(2.0124422 -0.046543754 -3.6586728e-23)
(2.014486 -0.046438177 -1.4815623e-23)
(2.0104668 -0.049052868 2.2492649e-23)
(2.0126738 -0.04931374 -4.583595e-23)
(2.0081533 -0.051288154 2.1999511e-23)
(2.0104909 -0.051892244 7.2950103e-23)
(2.0055351 -0.053207151 0)
(2.0079435 -0.054220745 -2.829807e-23)
(2.0026696 -0.054780364 0)
(2.0050872 -0.05619831 3.471099e-23)
(1.9996206 -0.055993362 4.35093e-23)
(2.0019787 -0.057827269 -3.7562817e-23)
(1.9964598 -0.05684691 -7.5566794e-24)
(1.9986909 -0.05907734 -5.8011408e-24)
(1.9932548 -0.057358843 -1.5712726e-22)
(1.9952977 -0.059960547 5.9064094e-23)
(1.9900685 -0.057550671 2.0591402e-23)
(1.9918728 -0.060487891 -2.2263141e-22)
(1.9869573 -0.057458018 1.1310257e-22)
(1.9884772 -0.060689364 1.1103157e-22)
(1.983968 -0.057127831 8.3542982e-23)
(1.985181 -0.060601828 1.5453172e-22)
(1.9811342 -0.056601206 -1.5836215e-23)
(1.9820178 -0.060269967 -9.719582e-24)
(1.9790239 -0.059742197 -1.8555888e-22)
(1.978477 -0.055920742 -8.7120412e-23)
(2.020106 -0.018020675 2.1487759e-24)
(2.021292 -0.015792125 4.4700413e-25)
(2.0197224 -0.02085796 -3.108969e-24)
(2.0204053 -0.020758373 4.0637767e-25)
(2.019556 -0.023767228 2.4011107e-24)
(2.0205701 -0.022013714 -5.2249714e-24)
(2.0194113 -0.026761693 6.5119946e-24)
(2.0201365 -0.026185742 8.9063731e-24)
(2.019351 -0.02985978 1.0439535e-24)
(2.0203673 -0.028408918 2.9273784e-25)
(2.0191562 -0.033041653 -5.8333873e-24)
(2.020123 -0.032217082 3.4266405e-25)
(2.0188574 -0.036297977 -5.6358323e-24)
(2.0200929 -0.035104728 -5.5275172e-24)
(2.0182845 -0.03959004 0)
(2.0196515 -0.038769415 0)
(2.0174312 -0.042876314 0)
(2.0190686 -0.042018471 -1.6369689e-23)
(2.0161991 -0.046099795 2.0056014e-23)
(2.0180573 -0.04555797 1.7265946e-23)
(2.0145799 -0.049199599 -2.5521202e-23)
(2.0166936 -0.048847274 1.8684102e-23)
(2.0125451 -0.052110856 9.5596368e-24)
(2.0148747 -0.052118338 -4.1191619e-23)
(2.0101155 -0.054772092 1.891625e-23)
(2.0126337 -0.055123718 7.4516611e-23)
(2.0073204 -0.057128878 8.5724771e-24)
(2.0099691 -0.057904413 -5.5613352e-23)
(2.0042162 -0.059138882 -5.6714005e-24)
(2.0069328 -0.060344622 3.2081269e-23)
(2.0008692 -0.060774658 -8.0731703e-23)
(2.0035806 -0.062434651 -3.4715279e-23)
(1.9973563 -0.062025376 6.1048068e-23)
(1.9999887 -0.064129815 -4.2434319e-23)
(1.9937558 -0.062896444 -2.4451995e-23)
(1.9962371 -0.06543005 9.4896298e-23)
(1.9901416 -0.063407581 -1.1143264e-22)
(1.9924084 -0.066338011 -1.090116e-22)
(1.9865795 -0.063594081 1.5297331e-22)
(1.9885797 -0.066877833 -2.9413618e-24)
(1.983125 -0.063480498 5.4331456e-23)
(1.9848032 -0.067080802 1.4279313e-22)
(1.9798244 -0.063131764 -1.8180246e-22)
(1.9811817 -0.066987376 -7.9741044e-23)
(1.9777125 -0.066649213 -9.4015194e-23)
(1.9767083 -0.062584442 -1.0139477e-22)
(2.0215414 -0.018783122 -1.0319809e-24)
(2.0226542 -0.01651938 0)
(2.0211993 -0.021650041 -1.9586528e-24)
(2.0218041 -0.021515335 -9.8955931e-25)
(2.0210939 -0.024606074 7.0711931e-25)
(2.0220209 -0.022787449 -1.1278926e-24)
(2.0210338 -0.027673863 2.2199229e-24)
(2.0216631 -0.02703153 2.1500332e-24)
(2.0210736 -0.030877143 0)
(2.0219952 -0.029323341 0)
(2.0209888 -0.034201811 0)
(2.0218604 -0.033262211 6.1797169e-24)
(2.0208047 -0.037643884 0)
(2.0219554 -0.036297925 -6.3952667e-24)
(2.0203414 -0.041168026 -1.6125564e-23)
(2.0216375 -0.04017239 7.5663628e-24)
(2.0195842 -0.044736109 1.6434794e-24)
(2.0211756 -0.043667556 -3.1478302e-23)
(2.0184235 -0.048290563 1.6094905e-23)
(2.0202678 -0.047512938 2.4833555e-23)
(2.0168407 -0.051768809 0)
(2.018983 -0.051153215 -1.0831632e-23)
(2.0147966 -0.05510004 2.7276847e-23)
(2.0172051 -0.05482746 1.1547134e-23)
(2.0123034 -0.058214713 -4.1025239e-24)
(2.0149582 -0.058275883 3.9460648e-23)
(2.0093836 -0.061047148 -2.7197816e-23)
(2.0122308 -0.061534653 -5.8833108e-23)
(2.0060898 -0.063542226 0)
(2.0090688 -0.064473946 -1.2878801e-24)
(2.0024884 -0.065658629 0)
(2.0055242 -0.067072237 2.0561799e-23)
(1.9986598 -0.067372049 0)
(2.0016737 -0.069269826 -2.5565009e-23)
(1.9946887 -0.068675794 0)
(1.9976012 -0.071053115 2.7811777e-23)
(1.9906598 -0.069580028 0)
(1.9933964 -0.072412466 0)
(1.9866509 -0.070109112 0)
(1.9891458 -0.073363059 3.9665636e-23)
(1.9827288 -0.070309398 0)
(1.984929 -0.073932035 2.3342e-24)
(1.9789476 -0.070202222 0)
(1.9808105 -0.074154601 -4.9951278e-23)
(1.9768636 -0.074079262 5.9960339e-23)
(1.9753493 -0.069853211 -1.1075776e-22)
(2.0228697 -0.019499951 0)
(2.0239071 -0.017206832 0)
(2.0225742 -0.022391428 0)
(2.0230996 -0.022220115 0)
(2.0225356 -0.025387854 0)
(2.0233713 -0.023509587 0)
(2.0225681 -0.028523014 0)
(2.023096 -0.027815462 0)
(2.0227184 -0.031823677 6.0169924e-24)
(2.0235362 -0.030172281 -2.9198327e-24)
(2.022758 -0.035282708 -8.1755761e-25)
(2.0235214 -0.034230735 8.677133e-24)
(2.0227071 -0.038901284 1.4099164e-24)
(2.023755 -0.037406118 -5.8743149e-24)
(2.0223777 -0.042648472 -9.2652543e-24)
(2.0235792 -0.041478262 6.9497328e-24)
(2.0217471 -0.046490684 -6.5592659e-24)
(2.0232627 -0.045208954 -1.5058627e-23)
(2.0206951 -0.050371353 -2.4084489e-24)
(2.0224892 -0.049349852 8.1976188e-24)
(2.0191927 -0.0542281 1.4125097e-24)
(2.0213215 -0.05333403 -9.9473742e-24)
(2.0171891 -0.057986088 2.4823943e-23)
(2.0196292 -0.057408921 1.0603878e-23)
(2.0146863 -0.061569576 -1.8481875e-23)
(2.0174276 -0.061304743 1.3057404e-23)
(2.0116979 -0.064903033 -3.0437743e-23)
(2.0146929 -0.06505465 -2.9106515e-23)
(2.0082705 -0.067919376 1.9412086e-23)
(2.0114633 -0.068516275 -1.1824895e-24)
(2.0044678 -0.070563451 -6.7069444e-24)
(2.0077843 -0.071657074 1.8878303e-23)
(2.0003708 -0.072796677 4.4660848e-24)
(2.0037301 -0.074402402 -2.3470902e-23)
(1.9960689 -0.074598841 2.5470465e-23)
(1.9993862 -0.076724643 2.5532699e-23)
(1.9916544 -0.075968523 3.9855176e-23)
(1.9948471 -0.078599967 -3.6304885e-23)
(1.9872157 -0.076921725 3.8576474e-23)
(1.990208 -0.080031928 7.6046996e-23)
(1.982833 -0.077488821 -4.8165496e-23)
(1.9855592 -0.081037932 2.1427513e-24)
(1.9785723 -0.07771344 1.4860443e-23)
(1.9809815 -0.081649962 -4.5853551e-23)
(1.9765438 -0.081913068 5.5040812e-23)
(1.9744832 -0.07763536 -6.7347547e-26)
(2.0240926 -0.020169632 0)
(2.025053 -0.017851804 0)
(2.0238479 -0.023081517 0)
(2.0242942 -0.02287173 0)
(2.02388 -0.026112372 0)
(2.0246223 -0.02417869 0)
(2.0240106 -0.029309115 -2.8284456e-24)
(2.0244342 -0.028536763 0)
(2.0242784 -0.03269862 -9.3026562e-26)
(2.0249857 -0.030954058 -2.6742966e-24)
(2.0244526 -0.036282195 2.8249746e-24)
(2.025098 -0.035120254 2.7482363e-24)
(2.0245487 -0.040065348 0)
(2.0254794 -0.038424791 0)
(2.0243724 -0.044022685 0)
(2.0254592 -0.042679742 -8.1083617e-24)
(2.0238936 -0.048125768 0)
(2.025307 -0.04663106 8.5045345e-24)
(2.0229824 -0.052320605 0)
(2.0246928 -0.051051355 0)
(2.0215996 -0.056546694 0)
(2.0236746 -0.055364748 0)
(2.0196829 -0.06072725 0)
(2.0221078 -0.059828304 0)
(2.0172232 -0.064782433 0)
(2.0199986 -0.064164594 0)
(2.0142235 -0.068628796 0)
(2.0173103 -0.068405886 1.7584624e-23)
(2.0107223 -0.072188751 0)
(2.0140717 -0.072399225 -3.9435115e-23)
(2.0067775 -0.07539407 0)
(2.0103193 -0.076102564 2.2147435e-23)
(2.0024687 -0.078191855 0)
(2.0061227 -0.079426981 0)
(1.997887 -0.080547316 -3.6387078e-23)
(2.0015654 -0.082330801 0)
(1.9931304 -0.082445605 6.6285904e-24)
(1.9967447 -0.084775277 -3.3232811e-23)
(1.9882959 -0.083891191 3.6158194e-23)
(1.9917619 -0.086750475 3.6279207e-23)
(1.983474 -0.08490564 0)
(1.9867165 -0.088262278 0)
(1.9787444 -0.085523845 0)
(1.9817 -0.089333644 0)
(1.976791 -0.090005827 0)
(1.974168 -0.085788954 0)
(2.0252132 -0.020789983 0)
(2.0260959 -0.018451745 0)
(2.0250227 -0.023718482 0)
(2.0253916 -0.023468996 0)
(2.0251278 -0.026777642 0)
(2.0257756 -0.024792844 0)
(2.0253593 -0.03002984 0)
(2.0256779 -0.029193813 0)
(2.0257484 -0.033498654 0)
(2.0263412 -0.031666055 3.1616322e-24)
(2.0260632 -0.037195595 0)
(2.0265845 -0.035927493 -3.2494463e-24)
(2.0263156 -0.041129051 -7.9285375e-24)
(2.0271182 -0.039348993 -3.7942139e-24)
(2.026306 -0.045280445 1.0458897e-24)