/*--------------------------------*- C++ -*----------------------------------*\
  =========                 |
  \\      /  F ield         | OpenFOAM: The Open Source CFD Toolbox
   \\    /   O peration     | Website:  https://openfoam.org
    \\  /    A nd           | Version:  8
     \\/     M anipulation  |
\*---------------------------------------------------------------------------*/
FoamFile
{
    version     2.0;
    format      ascii;
    class       volScalarField;
    location    "0";
    object      p;
}
// * * * * * * * * * * * * * * * * * * * * * * * * * * * * * * * * * * * * * //

dimensions      [0 2 -2 0 0 0 0];

internalField   nonuniform List<scalar> 
16200
(
-0.044734309
-0.04419834
-0.056992062
-0.051548618
-0.034320416
-0.059475297
-0.060085595
-0.047525649
-0.041846638
-0.038554489
-0.039692463
-0.04093201
-0.019112578
-0.030423776
-0.029505285
-0.031826457
-0.019523653
-0.036265412
-0.022531621
0.0057207983
0.052083748
-0.0089534361
-0.011452224
0.029550845
0.037451783
-0.0098169348
0.0042771468
0.029270876
0.051371507
-0.0096672936
0.029368064
-0.0054110922
0.022811311
0.048056608
-0.00058514264
0.030732767
0.016495576
0.015408563
0.0060157556
0.030593196
0.058472133
-0.0054540262
0.01174945
0.0054742635
0.052800044
0.040707523
0.012316827
0.041714967
0.036395328
-0.031834671
0.025275542
-0.014890681
0.0013375357
-0.029533752
-0.006564373
-0.011280885
-0.035772428
0.039327585
-0.016803113
0.010038303
-0.015629004
-0.0090234873
-0.024234074
-0.02957271
-0.0077392387
-0.013452153
-0.026979573
-0.015787657
-0.0095120215
0.0054687883
-0.0030985114
-0.011761971
-0.0038494482
-0.026399283
-0.010466559
-0.01998622
-7.6903347e-05
-0.00033291909
0.0085701252
-0.0012853154
-0.024979562
0.037442107
0.045744163
-0.014306733
0.028451509
0.0032804985
0.027002625
0.020937463
0.047021506
0.04474426
-0.0281748
0.011945563
-0.014842322
0.029176335
-0.055612414
0.00088927902
-0.029718802
-0.055853056
-0.057406399
0.033476352
0.0057153303
-0.02358553
0.03278951
0.031878089
0.037495625
-0.0047883491
-0.073117534
-0.0085576502
0.046322271
-0.0072786356
-0.08125132
0.0031761678
-0.087952252
0.025424356
-0.020502965
0.028168226
-0.027882694
-0.08530787
0.013995516
0.062333979
0.061397988
0.0028733214
-0.10161279
0.0077691862
0.0062333117
0.012630169
-0.1121693
-0.046713289
0.018782052
-0.028337027
-0.088673514
0.073634295
0.035043403
0.084254426
0.018423757
-0.11332574
0.026110385
0.0093587833
-0.12566082
-0.0034849083
-0.069058194
-0.02439537
0.0054435353
0.10251855
-0.081069872
0.056604915
0.082311217
0.036406194
-0.11168907
0.013382048
0.045955712
-0.1245204
-0.083823731
-0.020888618
-0.017044179
-0.010167209
0.055190009
0.077158101
0.085308958
0.11671191
-0.064680236
0.017601514
0.065687214
-0.097652911
-0.10835672
-0.088425094
-0.037101308
-0.025953254
-0.0092267107
0.073218559
0.09524975
-0.043455014
0.12413904
0.080624327
0.083808763
-0.073025996
0.020056176
-0.080109159
-0.081551218
-0.049497808
-0.00348381
-0.039533034
0.12312172
0.109525
-0.020285909
0.089038641
0.066971821
0.019409999
0.098916122
-0.043237361
-0.055752476
-0.044229191
-0.063682336
-0.048537566
-0.00071518719
-0.0013806726
0.11161177
0.045198756
0.11858955
0.10128602
-0.011321883
0.0125362
0.10967362
-0.005274512
-0.03685646
-0.054483736
-0.0029697698
-0.051210677
0.089966742
0.016739391
0.011396912
0.12155446
0.10876767
0.0014247231
0.014827932
0.11508127
0.031713437
-0.0046888952
-0.045210437
-0.04661192
-0.010703669
0.1109324
-0.015459475
0.023136273
0.11632008
0.05979663
0.035669729
0.11421295
-0.013677441
0.065458012
0.02907134
-0.02857666
-0.01561852
-0.034605404
0.024071918
0.10393945
0.03256849
-0.046022879
0.10712543
0.10674742
-0.030777807
0.053990796
0.094405568
-0.006282983
0.062084977
-0.018170219
-0.016461554
-0.01244515
0.097142527
0.039827916
0.084825944
-0.071055828
0.068526361
-0.043144102
0.092653916
0.019501825
0.11669883
0.092446786
0.0061901657
-0.018427609
0.081621284
0.047138275
-0.045364789
0.060453962
-0.089143014
-0.051346531
0.079681389
0.072893827
0.13281278
0.11875666
0.046575926
-0.015058483
0.031375805
0.051880174
-0.097861461
0.061588709
-0.071538639
0.033009702
0.087603524
-0.053502725
0.049248983
0.14162982
0.072905082
0.14041842
0.057065335
-0.0096771079
-0.093443302
-0.087841665
0.038986952
0.0055544136
0.05164796
-0.048410052
0.024170341
0.088593185
0.14097689
0.15632401
0.096723826
-0.0015815479
0.081433334
0.045762023
-0.075363943
0.016272875
-0.018596871
-0.09121395
0.080775259
0.00057611496
-0.035797947
0.12783544
0.16364492
0.11651718
0.10289711
0.0035629013
-0.0037650594
-0.079894872
-0.036132771
-0.047566778
0.031092974
-0.018541203
-0.019594782
0.061674128
0.13093999
0.15759633
0.10141632
0.120022
0.0073751551
-0.018407347
0.0084453992
-0.054757805
-0.013253887
-0.044609551
0.033511645
-0.0064135427
-0.030492106
0.13895758
0.063098585
0.14140112
0.1316124
0.0029865428
0.022434327
-0.018978189
-0.018959361
-0.042235052
-0.025380495
0.0081624614
-0.0036262525
-0.033333198
0.016107307
0.11496727
0.14006038
-0.005344602
0.13654597
-0.047487934
-0.023541265
0.051475995
-0.02863493
0.021901338
-0.042273156
0.013966427
-0.026214415
0.13337887
-0.03339479
0.079481789
0.13438208
-0.011013584
0.062549632
-0.012433981
-0.067352217
0.076380347
-0.0051320948
-0.076315425
0.020493988
-0.0094328608
-0.07845263
0.11924407
0.038259546
0.12468226
-0.013310392
-0.078930061
0.10075679
0.025392765
0.096806241
0.0068792342
-0.10010253
0.015213131
0.026095153
-0.11384372
-0.0038194751
0.098440257
0.10843298
-0.012124259
0.1128392
-0.081448959
0.032444397
0.059408265
0.13217352
-0.11324377
0.045013905
0.031768778
0.072415156
-0.13520417
-0.041012878
0.086474198
-0.005892383
0.15837199
0.0939086
0.12382818
0.061734407
-0.072244133
0.037961343
0.0770485
-0.11219301
-0.1373678
-0.067609309
0.043695433
0.060806584
0.0031490938
0.092075144
0.17798396
0.12779324
0.12637683
-0.052873939
0.043832074
0.10864711
-0.094612149
0.015798699
-0.079422006
-0.11652817
0.034243868
0.012161904
0.12098444
-0.027987339
0.18615348
0.15470815
0.12266645
-0.064163452
0.13746972
0.04669311
-0.073438807
-0.076651492
-0.0072607071
0.017353027
0.010157274
0.17708644
0.18799067
0.14627768
-0.0028631418
0.12611684
0.044717999
0.16146212
-0.027448927
-0.02150281
-0.049530456
-0.026678359
-0.0077708765
0.019511531
0.019345729
0.16609714
0.19196004
0.17277133
0.0093910211
0.10179843
0.17893809
0.037026109
0.025326393
-0.024184964
-0.010304405
-0.01632475
0.013571192
0.14343813
0.19656867
0.17887981
0.032019853
0.18873642
0.020851033
0.065767593
0.041715496
-0.014082177
0.07239135
0.036814186
0.0023127933
-0.013486546
1.0665887e-05
0.19083202
0.18387734
0.10113159
0.18932849
0.042778151
0.020151643
0.1127948
0.084564565
0.007949912
-0.0063148073
0.06339118
0.0010824902
-0.024322886
0.1801434
0.17499066
0.049386067
0.051958099
0.17996456
-0.027745838
0.12959034
0.14823847
-0.0087514638
0.039063049
0.082391841
-0.040150608
0.025466161
-0.0063631812
-0.073425571
0.14880574
0.16735167
0.16080586
0.061190326
0.075254669
0.17293534
0.16908624
-0.0032683224
0.056785091
0.099479917
-0.045265667
-0.087621418
-0.057096331
0.11319407
0.14594436
0.070980198
0.1327132
0.19212681
0.20219259
0.11276492
0.0025309791
0.11177167
0.091651429
-0.041350344
-0.085295802
0.11700389
-0.09528737
0.071473462
0.097921773
0.077662166
0.20354707
0.22913872
0.013182485
0.14844957
-0.029116157
0.12677317
0.12145508
0.028737733
-0.066002541
-0.11157857
0.083394916
0.077329589
0.06012653
0.25246657
0.022858082
0.27057428
0.17988317
0.25023422
0.20111651
0.12174374
-0.010647127
0.15948719
0.50463265
-0.099369758
0.049422273
-0.036099609
-0.0076239385
0.066679994
0.024735571
0.17952618
0.027975652
0.25649093
0.20530684
0.12886917
0.10900777
0.009220967
0.18767444
-0.0028395591
0.23562212
0.02059276
-0.062624385
-0.029800371
0.18475377
0.36253297
0.048319923
-0.0019773994
0.22335926
0.24770661
0.13779308
0.28951529
0.5720305
0.028104285
0.3694106
0.20962025
0.083408472
0.45068374
0.025585434
-0.033310391
0.4411557
-0.012471683
0.0021961308
0.028226225
-0.014323854
0.29820736
0.43740265
0.018014305
0.018289446
0.6171958
0.22346223
0.078651436
0.4394849
0.48771228
0.23316728
0.034260217
0.34533754
0.22407584
0.043286577
0.039466817
0.05411687
-0.0018487494
-0.017393277
-0.019121649
0.24729836
0.36152225
-0.0098183741
0.56334079
0.0076196754
0.23284899
0.18010937
0.0061911644
0.65313801
0.59706533
0.68971316
0.037159834
0.54619543
0.65375874
0.22953695
-0.0062291861
0.014099813
0.0087221308
0.68166137
0.072009701
0.086454046
0.55510883
0.010414172
0.47728116
0.67500959
0.35656629
-0.053896167
-0.16838295
-0.068832775
0.12176418
0.2221753
-0.00257414
0.45673488
0.74654576
0.71243147
0.78746327
0.22479832
0.30389401
0.039385564
-0.059044342
-0.063644933
0.053442292
0.69939689
0.088576203
0.79737763
-0.14202461
0.1272628
-0.31015576
0.031912143
0.041783053
-0.077030453
0.76102464
-0.12551883
-0.1332062
0.7286773
0.055068833
-0.0051546903
0.77122604
0.20060014
-0.34331719
-0.10233869
-0.25887807
0.041565467
0.20943193
-0.3259675
0.063463248
0.16360341
-0.39036851
0.094618354
0.10391243
-0.085320595
0.20279287
0.078598608
-0.33901859
0.26223217
0.30835441
0.10715055
0.16914657
-0.0068242261
0.80591218
0.80824224
-0.4044161
0.00031605124
0.16848904
-0.40263516
-0.17031803
0.87533756
-0.12716195
0.21064464
0.046511467
0.18435666
-0.32296901
0.1929594
0.099013849
0.13446881
0.11440009
-0.35180974
-0.25522432
0.70742758
0.1167305
-0.43163766
-0.075744232
0.12864764
-0.50191443
-0.33965894
-0.16722204
-0.051259056
0.81576923
0.062887327
0.012482666
0.89470609
0.15087049
0.86191918
0.80698652
-0.33056785
-0.3330906
-0.12700707
0.77746195
0.056059125
0.84446973
0.12739231
-0.34450734
0.95086075
0.17126747
0.13506508
0.21945723
-0.4921499
-0.47107576
0.88747286
-0.43653984
0.15346414
-0.049606444
-0.26187298
-0.067745516
-0.12448142
0.83377643
-0.3565676
-0.78293446
-0.45711963
0.086170656
1.0512887
0.83605144
-0.47109836
-0.37001623
-0.43574077
0.025736053
0.97864155
0.91452588
-0.77302721
-0.49372571
1.0243
0.95125509
-0.77737652
-0.77606779
-0.56808267
-0.099459254
0.11281646
1.021703
-0.75940401
-0.56955436
-0.45507422
0.065870529
0.95388558
0.16928171
0.24158195
-0.76494935
0.92798266
-0.44109314
-0.36952202
0.13685019
-0.3602899
0.9835227
-0.31717089
-0.60245653
0.97639408
1.0365308
1.0620924
0.20431135
1.0837841
0.98533433
-0.22380954
-0.34965268
-0.50690179
-0.44422315
-0.017090115
-0.46323045
1.0334056
0.18720861
-0.78654496
-0.060521238
-0.55248463
0.048775661
0.035819403
0.81828157
-0.53618624
-0.33898538
-0.053703016
-0.47474076
-0.41531663
-0.27687254
-0.19688082
1.0106562
-0.385714
-0.57758759
0.075763921
0.070394657
-0.78897565
-0.055896571
-0.28125976
0.25727419
0.13489298
0.23329654
-0.38700384
-0.36902992
0.20017735
0.039809799
-0.21675662
-0.24446049
1.1111783
-0.34366851
-0.37353446
0.014959651
-0.78678719
1.0407225
0.21705259
-0.50549812
-0.77251669
-0.77549386
-0.37463133
-0.33349078
-0.3781117
-0.50751305
-0.39949949
-0.16195052
0.0056493437
0.02467671
-0.20903577
0.62078412
-0.79082381
-0.015894926
-0.29434411
-0.1136452
-0.21300746
0.046222291
-0.0089392632
-0.77087887
-0.25920088
0.98498904
0.60035048
0.11172901
0.028900002
0.25743798
0.26242605
-0.1759099
-0.77792479
0.22668905
1.095973
-0.38107619
1.0356799
0.24212057
-0.79490427
0.04118269
1.0621276
-0.78478866
-0.38978237
-0.33319334
-0.37853197
-0.78380363
-0.38727906
1.1119018
0.6031677
1.161529
0.017683575
-0.12617785
0.032701081
0.11461385
0.41218893
-0.76024157
-0.76047487
1.1239994
-0.76449752
0.030196689
0.58225939
0.03361622
-0.78679395
0.41338227
-0.38023567
-0.33787492
-0.76363507
-0.78318036
1.1445519
0.11081357
1.2185828
-0.79600901
0.24773591
0.2026113
0.27510741
-0.77505969
0.064244832
0.0050625785
0.063460962
-0.76638136
0.24831436
1.2042039
0.26115073
0.42180113
1.141549
0.053819051
1.1758989
0.58478202
-0.39013575
1.1827159
1.1906373
0.027839816
-0.12258007
0.067460763
-0.035260088
-0.091440951
-0.38137136
-0.7694921
0.40137737
-0.40205327
0.082925825
1.1982521
0.022901946
0.59731917
0.030098195
0.42102802
-0.04765035
-0.41021491
0.0079867701
-0.79065557
0.052634501
0.57573948
0.57868337
0.55650606
0.43044683
0.43528222
-0.5895733
-0.39917626
-0.75202152
-0.7708086
-0.39223853
0.41913471
0.28338285
1.1543616
0.20288911
-0.007772187
0.10865527
-0.34822545
0.56901582
-0.5604294
0.26193714
-0.63716526
-0.09667801
-0.022802251
-0.57225934
0.43552207
0.27201936
0.105864
-0.58686416
-0.54926016
-0.78643508
0.42474369
-0.72139205
0.051551026
-0.3628492
0.1291039
-0.40851328
0.56637221
0.091951379
-0.76048395
-0.39891894
1.1261738
-0.7109746
-0.58500738
0.04442816
-0.7948814
-0.38812186
-0.41229289
0.038024059
0.43645582
0.059243636
-0.57306427
-0.76175192
-0.39559963
0.12845539
0.27679252
-0.084893623
0.14437562
-0.7646836
0.017863971
0.26745951
0.021953913
0.030585043
0.4528329
-0.0046005035
-0.56861378
0.27403583
0.14680125
-0.37939826
-0.16044303
0.087619731
-0.41273753
-0.78962356
-0.80223906
1.1817574
0.56026408
-0.62209795
0.43941992
0.5860489
-0.41454849
1.2864253
0.10660192
-0.20619872
0.39515128
0.16911493
-0.0062845524
-0.43854519
0.083515578
-0.58514954
-0.034691954
0.56948784
0.56256861
0.066488028
-0.63105004
1.2499596
-0.065352249
-0.62172845
-0.795602
-0.65577052
-0.80111581
-0.5416451
0.069322805
0.64533268
0.19152765
-0.60133188
0.11903621
-0.13868217
0.17318045
0.024653205
0.26237048
0.25538745
-0.043805545
-0.60523693
-0.6435953
-0.61286566
0.089749705
-0.67928116
0.68308677
0.1794493
0.66871859
-0.80056675
-0.6473318
0.14593632
-0.68962913
0.2626998
-0.11152102
-0.6442539
0.63291712
0.55604319
0.039729672
0.20273092
0.11684429
-0.42195302
-0.18065998
-0.35356901
-0.74954154
-0.66856903
-0.76627171
-0.38395264
-0.25072525
-0.63103704
-0.013248573
0.57324838
0.47104286
0.61483617
-0.60772465
0.073055031
0.4543875
0.16809029
0.58923175
-0.22391296
-0.64343391
-0.12279481
-0.14605701
-0.56202325
0.60029696
-0.36425157
0.3655765
0.15446056
0.036035567
-0.69038239
-0.51001952
-0.67376991
0.19712973
0.24540016
-0.14596217
0.052499499
-0.64902487
0.41974705
-0.074562508
0.46864091
0.21855778
-0.37972444
-0.27669229
1.2055713
0.46028006
0.20816658
0.67399722
1.2495937
0.086638715
-0.75433732
-0.025217994
0.23672011
-0.30858738
-0.38114353
0.23511496
-0.74131441
0.18759794
-0.37663109
0.63471672
-0.74712614
-0.1827769
-0.79591617
-0.7519868
0.45621327
0.48297547
-0.27617527
0.12676321
-0.40176953
0.65337258
-0.42580698
-0.63939423
0.081636146
0.18752123
-0.78461731
-0.69258336
0.55408404
-0.41076891
0.04832975
-0.25731696
1.3206922
-0.60370129
-0.03900269
-0.11954271
-0.67733187
-0.63547193
-0.33192466
-0.70256136
-0.79582277
0.48763119
-0.78418633
1.1961337
0.06187124
0.16928667
-0.34538351
0.21657507
-0.4903682
-0.74813045
0.50051136
0.45621435
-0.67457975
-0.1885343
-0.34485472
-0.36749501
0.04875013
-0.2307278
-0.1779464
-0.34501543
-0.60357642
-0.77395879
0.52365727
0.19819426
0.59358735
-0.34203271
0.55669988
-0.72636081
-0.6714131
0.21049295
0.69382788
-0.21917033
-0.79764275
-0.35036242
-0.70777904
-0.43538447
0.63059668
0.58281859
1.3363645
-0.38324114
0.51925755
0.52563682
0.73903692
-0.66646309
-0.19296106
-0.7799654
0.19881418
-0.37601488
-0.68823287
0.12351087
-0.40433926
0.23473503
-0.35310906
0.55504204
-0.78133267
0.090616376
-0.72699635
-0.70699705
0.62397676
0.34542753
-0.40443474
1.186928
1.3359944
0.33354728
0.056966971
0.023841838
-0.088215768
-0.075220716
-0.56861267
0.55036738
-0.35497658
0.17863303
-0.7202946
0.11622805
0.73243402
0.17767776
-0.3953121
-0.3902081
-0.38439173
0.50511178
-0.3512226
-0.74431275
1.2398334
-0.73062093
-0.69092307
-0.39686767
-0.011609396
0.13422578
-0.40904233
0.6252709
1.3274582
0.24676906
0.13635359
-0.62477178
0.55699564
-0.3616233
0.59598046
0.15264813
-0.24382433
0.34014484
-0.71976211
0.54169199
-0.48371334
0.58256019
1.239393
-0.4218204
-0.77052849
-0.62014469
-0.39415766
-0.20257161
0.11685728
-0.3612096
-0.34852727
-0.65429237
-0.80532105
1.3232499
0.7834069
-0.37955362
0.041453566
-0.67231455
0.021162234
-0.73486136
0.22580548
0.65376435
-0.26484984
-0.69926061
0.73106305
0.098244539
-0.80683283
0.22670825
-0.39049482
0.061543522
0.55146998
-0.73549438
-0.80106911
-0.75566294
-0.28500742
1.2118071
0.25072229
0.53225921
0.3436787
-0.72501818
0.60630394
-0.3411371
-0.19730849
-0.7100099
-0.70506724
0.69005965
1.285556
-0.56362369
0.18979491
0.059958364
0.47083967
-0.73040632
0.27923736
-0.096850658
-0.39060618
-0.59943648
0.72629585
0.13743651
-0.73738191
-0.65013214
0.019992835
0.52160629
-0.28147978
1.2991628
0.78318769
0.26209462
0.069545802
0.075026084
-0.028551802
0.14520578
0.61684015
-0.36643687
1.2556227
0.57430036
0.684356
0.028650993
-0.74774532
-0.042634931
-0.53150135
-0.56800382
-0.76764584
-0.60387491
-0.39985153
-0.75860598
-0.036073194
-0.70265079
-0.62569172
-0.079669835
0.32681523
0.67104937
-0.3742777
0.10803601
0.141221
-0.75248064
0.30613022
-0.73657052
1.4142381
-0.015539025
-0.094299589
0.37212561
-0.70763239
-0.77154623
0.23897946
0.78331404
0.71259848
-0.34430244
-0.59118155
1.4424223
-0.14604112
-0.72767895
-0.15815526
-0.66042932
1.0669644
0.071964933
-0.80461801
0.064231085
-0.3763579
1.426156
-0.75798928
1.4801742
0.5176197
0.21394982
-0.12516463
-0.11024755
0.52056482
-0.75405037
0.2662393
1.0237231
0.0021459851
0.017569474
0.25069967
0.54914323
1.4208284
0.68680061
0.65201942
-0.25957829
0.10111729
0.037042589
1.4214769
-0.23280191
-0.29569421
1.2337206
1.0110526
0.3623519
-0.67755404
0.30242115
0.05738627
0.77621724
-0.21139901
0.039629992
-0.61749068
-0.51813725
0.681087
-0.72674593
-0.74485304
0.012646284
-0.069678378
-0.32545972
0.10039388
-0.76223825
-0.69726158
0.010605678
0.92896847
-0.69503261
-0.2712444
0.19949594
-0.81673916
0.28317278
-0.21878658
-0.31956703
-0.73108059
-0.14114977
0.072839626
-0.325878
-0.53982685
-0.81057667
0.5389377
-0.04033404
-0.18046928
-0.77087882
-0.69623752
0.63228874
-0.26075851
-0.81481569
0.90017336
0.15087935
1.2933202
0.0061915411
0.54469718
-0.81110444
-0.19865027
-0.74464075
0.51715839
-0.5100049
0.46737051
-0.72729687
-0.76680475
1.4028411
-0.71448433
0.3357163
-0.33705288
0.50191703
0.62079102
-0.263347
-0.71646708
1.3674364
0.53757183
0.24850738
-0.36240635
0.50333026
0.89878262
-0.51341058
0.73222973
-0.15262937
-0.42974792
-0.33318678
-0.18675102
-0.3204601
-0.18575756
0.097315112
0.52853457
-0.59475232
-0.80986473
-0.4067429
0.17746768
0.00052205624
-0.60869092
-0.34080492
-0.80874424
-0.11003654
-0.74730644
1.4498877
0.012586859
0.59621655
-0.063613895
-0.1572144
-0.27143808
0.75323353
0.27805138
0.77697766
0.28178048
-0.43442304
1.0038176
-0.33331528
-0.17336599
-0.21857312
0.028356251
-0.15124862
-0.78006229
-0.032405463
0.87154283
-0.72121289
0.20421712
-0.73389399
-0.022302449
-0.75544274
-0.24019734
0.65102085
-0.1777161
0.29472449
0.56746754
0.074334409
0.075251397
-0.18783546
-0.81463749
0.031531514
-0.78172018
-0.81371532
0.77575031
0.83457778
-0.70419627
-0.094036775
-0.53370802
-0.27355359
-0.27132288
0.25712741
0.093701408
-0.50575901
0.79700964
0.8508341
0.15061784
-0.24229582
-0.71761692
-0.011932007
-0.73276139
-0.47016297
-0.23517105
-0.26605207
-0.2411834
-0.77725061
1.3632206
0.69836837
1.5169936
-0.32696622
-0.21972156
-0.71656952
1.4359194
-0.12097074
0.53702988
-0.82039078
-0.19227697
-0.17429584
-0.6854131
1.4334193
0.053492869
0.88256441
0.80507877
1.495473
-0.77391428
-0.50756871
0.75878983
-0.54433572
1.3787999
-0.4447758
0.78636917
-0.80810816
-0.23358949
-0.28122783
-0.30570738
0.21502107
-0.78539269
-0.73252315
1.308781
-0.26505258
-0.6296394
-0.21361675
-0.66487236
0.61139476
0.24762176
-0.68029236
0.3145189
0.83643984
0.25758151
1.3615834
0.84231394
-0.079538459
-0.22816151
-0.27390515
0.17273115
0.26116915
-0.73780909
0.048325162
-0.73906586
-0.38782225
-0.061113941
0.29229974
0.34173433
-0.33443497
0.0083736838
-0.78227594
0.894919
-0.74469725
-0.67803997
-0.11122021
-0.20841315
-0.32400718
-0.70633821
1.1237059
0.69465251
-0.8178518
0.25997963
0.28390189
-0.23139715
-0.67081046
0.35391897
0.3042979
0.40432928
1.3927488
-0.11672397
-0.20669477
-0.58332562
-0.046571732
1.3699491
-0.17145706
0.070349175
-0.23675545
-0.12729059
-0.60494626
-0.40523915
-0.82657748
-0.68189853
-0.73927795
-0.39417348
0.19447986
0.074033991
-0.043465754
0.0092359679
0.74822436
-0.514708
0.65888391
-0.10072113
-0.23883446
0.042350817
-0.21189439
-0.25813164
-0.72549635
-0.82091516
-1.1935443
0.030931204
-0.19603071
0.042550618
1.451218
0.063385953
1.0344962
-0.72699309
-0.30394864
-0.76208128
-0.27623128
0.48186805
-0.82089271
-0.18703781
1.5630042
0.62670427
-0.73062167
-0.19881931
-0.66497334
0.26041387
-0.74572176
0.30226093
-0.7472703
-0.8277647
-0.087276722
-0.79859743
-0.69197498
0.98424166
0.65474989
-0.42248827
-0.53602717
1.3311604
0.53075892
0.90630898
0.14456542
0.052147244
1.0757304
-0.32961985
0.80075345
-1.1584464
-0.76882798
0.017034701
-0.67529546
-0.81210651
-0.51387294
-0.74657481
0.029445265
1.5566035
-0.73536452
-0.61992842
-1.1671423
0.040939864
-0.31262983
-0.099303998
0.24276944
0.73844365
0.13070242
-0.31420366
-0.28012891
-1.093218
-0.70787981
0.063244166
-0.18280086
0.18839139
-0.32030496
-0.73114755
-0.67384021
0.18168385
-0.79679213
-0.43544999
1.0710103
-0.84981777
1.231554
-0.74905599
0.54716962
-0.42989638
-0.83196087
-0.27403417
1.4005659
-1.0122902
-0.27705317
0.74293638
0.42329684
0.87365498
1.4467746
0.33746321
-0.85003006
1.1874384
0.51276477
-0.77518923
-0.31845549
-0.77003879
0.050638496
0.22278917
0.31250713
0.74114721
-0.97700814
0.80043375
-0.13339799
0.66387276
0.81747993
-0.80940176
0.95588849
-0.76561524
1.1396597
1.1677947
-0.0024812522
-0.28244997
0.19829846
0.1501505
-0.015313438
-0.29224557
-0.3019258
0.20911692
-0.32632134
-0.31850126
0.0340858
0.65818707
-0.71506471
-0.7394578
0.036066196
0.014792685
0.073679206
-0.047952814
0.70328693
-0.31384187
-0.83442577
0.27304994
0.31441997
0.20057252
1.3595413
0.61924492
0.1660122
-0.31935166
1.1897253
-0.73473053
0.80287586
-0.30500444
1.2205928
0.26715621
0.1876381
0.74839692
0.06731849
0.068844035
0.33416164
1.3779716
0.77621945
0.85719619
-0.18496415
0.078771437
0.016734586
0.85387427
-0.25511645
0.15288194
0.3002975
0.93218827
-0.8528215
0.79580111
0.2231246
-0.32095962
1.0663793
-0.84297454
-0.57674543
-1.1863229
-0.64891172
-0.39491777
-0.26863094
-0.15953534
0.7769636
0.067504497
1.0996956
-0.75084274
1.574274
0.56442763
0.32555575
-0.79771298
1.2257133
-0.82656453
-0.81418194
1.3357836
-0.84465132
-0.94849629
-0.258838
1.2560743
-0.76854075
1.0880216
1.0700191
0.88998492
0.066776882
-0.25404492
1.2992023
0.30951534
0.077644705
-1.0003076
-1.0068683
-0.29310636
0.92922918
1.5995102
1.7842809
-0.61696387
-0.23144954
0.8150155
1.1115544
-0.78345754
0.073873191
-0.04532983
-0.33760246
0.87047028
1.0370679
0.96156898
1.2734863
-0.84850714
-0.31698497
0.091650697
-1.203757
-0.82759534
-0.096050266
-0.33102409
0.066202878
1.5483658
-0.72575914
-0.97951028
-0.29075851
-0.1603104
-0.75192615
0.85335198
0.26566253
1.5753227
-0.71282195
-0.60633211
-0.31495571
-0.82722206
-0.81178038
1.217912
1.5184893
-0.79094515
0.36254202
-1.2788269
-0.25136052
0.78865821
-0.29851587
-0.82329689
-0.70130947
1.4266001
-0.97431597
-0.7525796
1.5444399
-0.42598889
-0.26294628
0.073648185
1.1755918
0.91524137
-0.15970192
-0.8365569
-0.020718164
-0.25035235
0.027082579
0.29372293
0.88150471
-1.2265154
-0.97197379
-0.73583001
-0.2582604
-1.1117699
-0.30668884
-0.26667312
-0.85238257
-0.773465
0.2947912
0.47913807
0.89216209
0.79585444
-0.094971082
0.2226139
0.73601049
0.50949937
0.97063541
-0.24750644
-0.66444355
-0.22292888
1.1590032
0.12680563
-0.28243763
0.29977153
-0.60074321
1.4514007
0.55392619
0.83005299
-1.0860235
1.069409
1.1919413
0.16318549
-0.22858127
-0.28420311
-0.911995
-0.28489228
1.22271
0.003907598
-0.045699888
0.515218
-0.23994836
-0.29329723
1.5050971
1.0490205
0.27282263
0.080775945
-0.13219016
-0.66854897
1.3462157
-0.87711969
-0.73454356
0.069186081
-0.14261156
-0.22400925
-0.25292657
-0.31047247
-0.31329511
-0.087548298
0.76571335
-0.94748353
0.12506176
-0.2522374
-0.082080794
0.012798647
-0.49877891
-0.80621465
0.10686071
-0.32749691
-0.26343669
-0.16215796
-0.32578117
-0.28761624
0.14239052
0.1940909
1.2158239
-0.53042933
0.93818313
1.1574633
-0.81007949
-0.30948652
-0.31261069
0.30850483
-1.2609849
0.17192357
-0.86688642
0.47062233
-0.154189
-0.13560334
-0.18459194
-1.1143828
-0.34245961
-1.1286015
1.3019625
-0.24528303
-1.0804281
-0.73449081
0.23492349
-0.22587038
0.75678339
-0.10429091
-1.0898927
1.4864131
-0.30966504
-1.0417529
-0.10541583
-0.24504281
0.19384134
-0.88364255
0.41569648
-0.38457015
0.22209265
-1.2664619
0.098542601
-0.24815632
1.0727112
0.24493023
0.30101612
-0.3215451
0.092653978
-0.89982883
1.0721739
1.1904212
0.17152525
1.5929065
-1.1534017
-0.26979454
-0.78116846
0.072305342
-0.093903348
-0.2869883
-0.24483821
1.4189228
0.32957327
0.083488964
-0.25294182
1.5030632
-0.30839718
1.3083274
-0.30872539
0.49290323
-0.25331912
0.082854723
0.11906669
0.48560423
-0.33976649
-0.15047099
1.4687005
-0.11478418
-0.2766875
-0.30601908
1.7464098
-0.89579078
0.20795329
0.12577543
-0.54808702
-0.20878374
-0.94469017
0.97442765
0.93861125
-0.66131851
0.27951661
0.46082883
1.0326209
0.15437727
0.57243809
-0.45934557
1.6141087
0.24196263
-0.82091655
0.090068356
0.19100097
-0.57214578
-0.73319803
-0.80189951
-1.2116631
1.6245939
-0.09679224
1.4161477
-0.82134725
-0.91007448
-1.2643616
-1.2233493
-0.86039284
-0.24653324
-0.25594142
-0.27679611
-0.23929768
0.018767294
-0.26013949
-0.26295281
-0.90827252
-0.28715321
1.544126
1.0189649
0.36056088
1.4980494
-0.87241988
1.4105279
-0.91182271
1.0951947
0.29153148
0.52055108
0.10969364
0.1147687
-0.69550463
-0.15750419
0.47203373
-0.037053267
0.49140292
-0.25083597
-0.048939899
-0.7465247
-0.54732724
1.2224071
-0.24253304
-1.116254
-0.19673522
-0.85163366
-0.025358357
1.0613626
-0.31181262
1.7935915
0.093290154
0.28712358
1.0278027
-0.85435399
-0.18371406
0.44467914
-1.1928748
-0.83054937
-0.86574378
-0.2936877
-0.80039251
-0.13094932
0.27061734
0.22195668
-1.1288817
-0.42394174
-0.84736682
0.073035335
-0.28376361
0.44524745
0.85013773
0.83653364
-0.83673408
0.051037367
1.1376109
0.55044016
0.59607852
0.33684613
-0.77089168
1.7351552
-0.25414135
0.73894769
-0.75036771
0.63314614
-1.2417702
1.3100435
-0.70024799
-0.83788386
1.7219582
-1.1580243
-0.42813972
-0.24650648
-0.80573703
-0.16710813
-0.26679669
-0.63017298
1.460713
0.49399783
-0.83294356
-0.13754109
-0.70363145
1.4643252
-0.88728644
-0.29294439
-0.28553828
-0.27000696
-0.88171757
-0.28385724
-0.23988598
-0.85158161
0.95611179
0.28737902
0.10874913
-0.8032325
-0.76218611
-0.27159566
0.18955105
1.2344984
0.1664063
-0.62248193
-0.049259651
0.80457061
-0.2576401
-0.5872593
0.66233862
-0.2495324
-0.057151892
1.6619184
-0.72896488
-0.83990874
-1.2391707
0.48023996
-0.75964855
1.7038762
0.0049497736
-0.62592922
-0.22109478
-1.111057
-0.84367103
-0.99394039
-0.2912911
0.11762849
0.106675
-0.28097497
0.30175465
-0.54565793
-0.25481066
0.54326163
-1.002637
-0.82942038
-0.27034116
-0.29159964
0.036426888
-1.0124868
-0.75776312
-0.59081503
-0.85236036
-0.21526386
-0.23348447
0.073915686
1.6147544
-0.18356267
-0.28935358
-0.24928667
-1.1894438
-0.26714293
0.21347932
-0.26689578
-0.7678292
-0.90178195
-1.196537
-0.82947157
-0.19118081
1.6731375
-0.25549505
-0.30645966
-0.95694679
-0.92950649
0.26489266
0.23358155
-1.1080324
0.27369628
0.29153846
0.079361835
-0.26002653
-0.89252291
0.085171427
0.13140195
-0.23311413
-0.26892373
-0.49139002
-0.17230679
-1.1307074
-0.88078308
-0.73057851
-0.26191118
0.9647219
-0.22567127
-0.30424077
0.10759732
0.075990969
-0.25289861
-1.1853094
-1.1163394
1.7246192
0.15414899
-1.2457064
-0.24670006
-0.95841199
0.076381878
-0.85067112
-1.2053646
-0.4778259
-0.23667104
-0.53800556
-0.25075296
1.5317168
-0.03313948
-0.29547708
-1.227046
-0.28786845
0.58885908
-0.78331253
0.84152484
1.6679736
-0.3423522
-0.91010339
-0.25341108
-0.92284976
-0.2806127
-0.83485574
1.2538271
-0.89856696
1.3414519
1.0639235
0.35635229
-0.22486839
-0.94560992
0.11907184
-0.84204243
1.6542783
0.061868839
-0.24299981
-0.34991598
1.6927809
-0.06298339
1.3527087
-1.2646032
-1.0077944
-0.22243429
-0.14309848
-0.95974844
-0.29121174
-0.83344293
1.622167
0.98040702
0.53061422
-0.83366686
0.52685369
-1.1100733
-0.9744746
-1.1224783
-0.5073297
0.56249035
0.13283906
0.25546922
0.31828731
0.15004418
0.42214285
-0.46227853
0.12878632
1.2293871
1.1441774
-0.44155988
1.3946228
1.5916058
-0.72101949
-0.85459409
0.60416609
1.5296738
-1.0236284
-0.32979319
-0.98205348
1.5733236
0.66841963
0.20125186
-0.93929211
-0.023786622
0.40104828
-1.2384016
-0.18412169
1.325683
-0.02129885
0.34201688
-0.25530396
0.39734901
-0.58623534
1.5032912
-0.18522711
-0.37408743
0.22314825
-0.32080204
-0.92634972
0.25624633
0.27089233
0.42832659
-0.7408058
-0.83851104
-1.2667493
-1.2524251
-1.0313821
-0.25276886
1.1089316
-0.41644879
-0.25464169
-0.30680101
0.25095537
-0.27094099
-0.14077947
1.8439994
-0.78919802
-0.88297485
0.62294936
-0.73374694
-0.85912718
1.5874063
-0.17558554
-0.70916088
1.6683507
-0.89369496
-0.26989566
0.71427442
0.08104092
1.6402484
1.4128032
-0.91902802
-1.0398378
0.4339414
-1.2612687
-0.30118255
0.40261523
0.37968348
-1.129606
0.31985677
0.073182926
0.64040429
0.038119959
-0.99775721
-0.87937445
-0.24644834
-0.24541467
0.027322074
1.7301588
0.25281063
-0.32320648
0.73985556
-0.27535119
1.4572641
1.5578265
-0.23585167
-1.1172533
0.27761576
-0.30291077
0.95987071
-0.2479866
-0.24796057
-0.25147378
-0.28541677
0.14198572
-0.30174581
0.45266671
0.4077441
-0.86188882
0.15095053
-0.17834866
-0.2527023
-0.91179688
-1.0826664
-0.50981204
0.47163815
-0.7342893
-0.30669209
-0.13986299
-0.44122396
0.34802554
0.86318951
1.7496518
-1.2261219
-0.25442666
-0.15069556
0.26759537
-0.94837013
-1.2315603
-0.27974268
0.18739685
1.6806094
1.5091743
-0.26176506
0.11281307
1.5250519
-0.89408822
0.39320686
1.3861575
0.41319527
-1.1994306
0.16290144
-0.79603924
1.6189123
0.98501509
-1.2261213
-0.25154882
-0.24866718
-0.73148266
-0.34622731
-0.34084251
-0.92306774
-0.2950027
1.6887145
0.18360565
-0.99954744