/*--------------------------------*- C++ -*----------------------------------*\
  =========                 |
  \\      /  F ield         | OpenFOAM: The Open Source CFD Toolbox
   \\    /   O peration     | Website:  https://openfoam.org
    \\  /    A nd           | Version:  8
     \\/     M anipulation  |
\*---------------------------------------------------------------------------*/
FoamFile
{
    version     2.0;
    format      ascii;
    class       surfaceScalarField;
    location    "10";
    object      phi;
}
// * * * * * * * * * * * * * * * * * * * * * * * * * * * * * * * * * * * * * //

dimensions      [0 3 -1 0 0 0 0];

internalField   nonuniform List<scalar> 
36597
(
-1.3984555e-05
0.050668967
-1.634986e-05
0.050307564
-2.0246713e-05
0.049627238
-2.2233224e-05
0.048636616
-2.4821916e-05
0.0473665
-2.6513749e-05
0.045843706
-2.8240923e-05
0.044105936
-2.9455334e-05
0.042189791
-3.0462472e-05
0.040135386
-3.1089675e-05
0.037981181
-3.1435605e-05
0.035764749
-3.173841e-05
0.033520806
-5.5932981e-05
0.031300423
-0.00010919219
0.029115031
-0.00017968932
0.026973343
-0.00025872477
0.024896743
-0.00034016823
0.022902068
-0.000419906
0.021001892
-0.00049535327
0.01920495
-0.00056504232
0.017516631
-0.00062829285
0.015939476
-0.00068495684
0.014473685
0.013117578
-0.00073522852
-4.4032415e-05
0.05068346
-5.3920373e-05
0.050317452
-6.4608978e-05
0.049637927
-7.2593878e-05
0.048644601
-8.0681767e-05
0.047374588
-8.7123496e-05
0.045850148
-9.3043209e-05
0.044111856
-9.7720382e-05
0.042194468
-0.00010153625
0.040139202
-0.00012467596
0.038001072
-0.00021603244
0.035841852
-0.00035522882
0.033637908
-0.0005061127
0.031420759
-0.00064991937
0.029221456
-0.00078365273
0.027066529
-0.00090564173
0.024977639
-0.0010152307
0.022971791
-0.0011124857
0.021061624
-0.0011979583
0.019255874
-0.001272497
0.017559874
-0.0013371075
0.015976085
-0.0013928512
0.014504608
0.013143658
-0.0014407775
-7.6989406e-05
0.050705351
-9.4489998e-05
0.050334952
-0.00011203815
0.049655475
-0.00012663211
0.048659195
-0.00014075862
0.047388715
-0.00015273198
0.045862121
-0.00016360649
0.04412273
-0.00018975915
0.042217923
-0.00032124822
0.040251191
-0.00052649985
0.038169537
-0.00074066311
0.035999267
-0.00095156488
0.033779344
-0.0011528694
0.031546193
-0.0013403205
0.029331375
-0.0015114889
0.027161877
-0.0016653333
0.025059617
-0.0018018467
0.023041744
-0.0019217284
0.021120935
-0.0020261246
0.019305892
-0.0021164275
0.017601869
-0.002194128
0.016011217
-0.0022607134
0.014533916
0.013168055
-0.0023176023
-0.0001110775
0.050733929
-0.00013575533
0.05035963
-0.00015988819
0.049679608
-0.00018109896
0.048680405
-0.00020135157
0.047408967
-0.00021915788
0.045879927
-0.00030709264
0.04419958
-0.00053659704
0.042409625
-0.00080353461
0.040446366
-0.0010800403
0.038349088
-0.001354657
0.036161766
-0.0016185754
0.033924095
-0.0018658645
0.031673471
-0.002092777
0.029441911
-0.0022975057
0.02725686
-0.0024796677
0.02514047
-0.0026399135
0.023110007
-0.0027795696
0.021178157
-0.0029003616
0.019353562
-0.0030042029
0.01764137
-0.0030930443
0.016043799
-0.0031687726
0.014560686
0.013189978
-0.0032331481
-0.00014461041
0.050768373
-0.00017568993
0.05039071
-0.00020587983
0.049709798
-0.00023331662
0.048707842
-0.00025946631
0.047435117
-0.00039658488
0.045999896
-0.00067887762
0.044424168
-0.00099634062
0.042623851
-0.0013309261
0.040645807
-0.0016677457
0.038531129
-0.0019953446
0.036325207
-0.0023052376
0.034068527
-0.0025918852
0.031799337
-0.0028521703
0.029550208
-0.0030849271
0.027348983
-0.0032904302
0.02521802
-0.0034699692
0.023174684
-0.0036254676
0.021231642
-0.0037591927
0.019397455
-0.003873538
0.017677137
-0.0039708718
0.016072756
-0.0040534382
0.014583987
0.013208618
-0.0041232995
-0.00017588489
0.050807722
-0.00021249754
0.050427322
-0.00024804101
0.049745341
-0.00028110837
0.04874091
-0.00042576516
0.047563175
-0.00073144948
0.046236645
-0.0010853956
0.04465262
-0.0014671038
0.042839073
-0.0018589967
0.040844699
-0.0022461422
0.038711352
-0.0026172538
0.036485763
-0.0029642899
0.034209271
-0.0032821382
0.031920803
-0.003568402
0.029653684
-0.0038225203
0.027435983
-0.0040454052
0.025290294
-0.0042389459
0.02323405
-0.0044056145
0.021279883
-0.0045481666
0.019436249
-0.0046694204
0.017708013
-0.0047721075
0.016097073
-0.0048587774
0.014602927
0.013223194
-0.0049317463
-0.00020328589
0.050850885
-0.00024441704
0.050468453
-0.00028443634
0.049785361
-0.00039315853
0.04883958
-0.00069845094
0.0478029
-0.0010683433
0.046472458
-0.0014805238
0.044878559
-0.0019141349
0.04305057
-0.0023513971
0.041038841
-0.0027775399
0.038886056
-0.0031815939
0.036640214
-0.0035559822
0.034343479
-0.0038962099
0.032035498
-0.0042004635
0.029750254
-0.0044687996
0.027516063
-0.0047027252
0.025355737
-0.004904667
0.023286754
-0.0050775812
0.021321701
-0.0052246446
0.019468909
-0.0053490352
0.017733085
-0.0054537858
0.016115941
-0.0055416945
0.01461679
0.013233067
-0.0056152789
-0.00022553491
0.050896652
-0.00026996046
0.050512879
-0.00033016333
0.04984327
-0.00059774606
0.049059726
-0.00095984065
0.048039147
-0.0013802604
0.046702394
-0.0018370949
0.045097562
-0.0023094151
0.043254429
-0.0027794999
0.041224841
-0.0032329121
0.039052346
-0.0036591074
0.036786116
-0.0040510422
0.034469126
-0.0044049459
0.032141861
-0.0047192704
0.029838481
-0.0049948996
0.027588116
-0.0052337669
0.025413427
-0.0054387687
0.023332027
-0.0056132639
0.02135644
-0.0057607751
0.019494873
-0.0058847683
0.01775186
-0.0059885117
0.016128925
-0.0060749927
0.014625183
0.013237885
-0.006146878
-0.00024194714
0.05094376
-0.00028830922
0.050559241
-0.00045896466
0.049993791
-0.00078720091
0.049288327
-0.0011911428
0.048266297
-0.0016480516
0.046922433
-0.0021358424
0.045306131
-0.0026337804
0.043447665
-0.003124434
0.041400232
-0.0035938421
0.039208244
-0.0040319726
0.036921947
-0.0044323491
0.034585103
-0.0047916638
0.032238903
-0.0051091611
0.029918014
-0.0053858501
0.027651747
-0.0056242902
0.025463164
-0.005827712
0.023369774
-0.0059997867
0.021384074
-0.0061442959
0.019514149
-0.0062649183
0.017764365
-0.0063650908
0.016136052
-0.0064479317
0.014628131
0.013237659
-0.0065162068
-0.00025250975
0.050991018
-0.00031918353
0.050623462
-0.00058656602
0.050203944
-0.00094829866
0.04950527
-0.0013804663
0.048480932
-0.0018604012
0.047129585
-0.0023662013
0.045501767
-0.0028775653
0.043628265
-0.0033775453
0.041563488
-0.0038527645
0.039352675
-0.0042937519
0.037047044
-0.0046945862
0.034691102
-0.0050524527
0.032326686
-0.0053670424
0.029988959
-0.0056397461
0.027707397
-0.0058734297
0.025505448
-0.006071605
0.023400556
-0.0062381536
0.021405182
-0.006377031
0.019527306
-0.0064920512
0.017771134
-0.0065867555
0.016137813
-0.0066643386
0.01462607
0.013232776
-0.0067276196
-0.00025775297
0.051037405
-0.00039473536
0.050745691
-0.00069184545
0.050404639
-0.0010745744
0.049707849
-0.0015224892
0.048680732
-0.0020132834
0.047321914
-0.002525541
0.045682962
-0.0030396006
0.043795142
-0.0035391557
0.041713941
-0.0040114907
0.039485362
-0.0044477231
0.037161487
-0.0048424566
0.034787511
-0.0051933051
0.032405853
-0.0055002769
0.030052114
-0.0057652221
0.027756144
-0.0059908914
0.025541269
-0.0061811996
0.023425455
-0.0063400795
0.021420835
-0.0064715678
0.019535366
-0.0065795429
0.017773123
-0.0066675879
0.016135083
-0.0067389242
0.01461979
0.013223934
-0.0067963844
-0.00025876951
0.051082369
-0.00045894919
0.050907879
-0.00077157275
0.050590024
-0.0011643184
0.049894468
-0.0016171472
0.048864423
-0.0021083702
0.04749846
-0.0026173018
0.045849094
-0.0031250872
0.043948003
-0.0036161843
0.041851627
-0.00407859
0.039606647
-0.0045040209
0.037265903
-0.0048875651
0.034875201
-0.0052272015
0.032477484
-0.0055231962
0.030108754
-0.0057774943
0.027799146
-0.0059932684
0.025572264
-0.0061739921
0.0234458
-0.0063239531
0.021432412
-0.006447114
0.019539656
-0.0065473356
0.017771573
-0.0066281906
0.016129004
-0.0066928808
0.014610327
0.013212063
-0.0067442171
-0.00027887072
0.051145609
-0.00050662222
0.051072326
-0.00082560297
0.050759243
-0.0012191722
0.050064496
-0.0016679509
0.049031618
-0.0021510792
0.047659073
-0.0026487874
0.046000249
-0.0031431536
0.044087161
-0.0036194905
0.041977083
-0.0040665379
0.039717274
-0.0044766109
0.037361235
-0.0048452408
0.034955295
-0.0051707075
0.032542856
-0.0054534508
0.030160279
-0.005695496
0.027837969
-0.0058999236
0.025599712
-0.0060705131
0.023463383
-0.0062110194
0.021441385
-0.0063255881
0.019541631
-0.0064179759
0.017767873
-0.0064916723
0.016120865
-0.006549823
0.014598863
0.013198233
-0.0065951856
-0.00030518961
0.051231204
-0.00053789267
0.051221296
-0.00085577785
0.050912234
-0.0012428033
0.050218056
-0.0016804386
0.049182606
-0.0021488179
0.047804194
-0.0026292198
0.04613701
-0.0031047424
0.044213321
-0.0035616136
0.042091137
-0.0039893304
0.039818188
-0.0043807982
0.037448543
-0.0047319533
0.03502896
-0.0050413227
0.032603242
-0.0053094507
0.030208053
-0.005538362
0.027874048
-0.0057310641
0.025625191
-0.0058911344
0.023479475
-0.0060224349
0.021449403
-0.0061287114
0.019542774
-0.006213621
0.017763382
-0.0062806303
0.01611199
-0.0063327486
0.014586629
0.013183571
-0.0063726484
-0.00032226778
0.051328952
-0.0005540895
0.051355142
-0.00086505234
0.051049505
-0.0012398778
0.050355798
-0.0016610062
0.049318138
-0.0021096866
0.04793465
-0.0025683291
0.046260256
-0.0030211062
0.044327398
-0.0034551933
0.042194738
-0.0038608466
0.039910365
-0.0042315482
0.03752884
-0.0045636064
0.035097258
-0.0048557528
0.032659756
-0.0051085838
0.030253252
-0.0053240654
0.027908618
-0.0055050656
0.025649984
-0.0056549802
0.023495474
-0.005777431
0.021457671
-0.0058760409
0.019544413
-0.0059543343
0.017759544
-0.0060153273
0.016103532
-0.0060622059
0.014574822
0.01316919
-0.0060974145
-0.00033073543
0.051431388
-0.00055720097
0.051474615
-0.00085687339
0.051171933
-0.0012153581
0.0504787
-0.0016161343
0.049439231
-0.0020416448
0.048051478
-0.002475474
0.046371008
-0.0029028945
0.04443038
-0.003312037
0.04228883
-0.0036939083
0.03999471
-0.004042549
0.037603004
-0.0043546125
0.035161053
-0.0046290033
0.032713274
-0.0048663339
0.030296777
-0.005068473
0.027942622
-0.0052381068
0.025675084
-0.0053784015
0.023512416
-0.0054927284
0.021467297
-0.0055844669
0.019547634
-0.0056568597
0.017757296
-0.0057130585
0.016096886
-0.005755531
0.01456441
0.013156086
-0.0057869415
-0.00033167718
0.05153328
-0.00054949548
0.051580708
-0.00083476741
0.051280602
-0.001174063
0.050587912
-0.0015519263
0.049547037
-0.0019520374
0.0481558
-0.0023591626
0.046470323
-0.002759678
0.044523239
-0.0031426559
0.042374289
-0.0034998368
0.040072006
-0.0038257966
0.037671734
-0.0041175113
0.035220983
-0.0043740361
0.0327644
-0.0045959776
0.030339228
-0.0047850856
0.027976682
-0.0049438426
0.025701156
-0.0050751606
0.023531021
-0.0051821358
0.021479062
-0.0052678753
0.019553271
-0.0053353764
0.017757583
-0.0053874431
0.016092635
-0.0054266648
0.014556464
0.013145141
-0.0054552403
-0.00032638664
0.051631156
-0.00053326682
0.051674532
-0.00080208088
0.051376692
-0.0011204099
0.050684651
-0.0014738572
0.049642743
-0.0018473548
0.048248748
-0.0022268294
0.046559232
-0.0025997469
0.044606889
-0.0029560898
0.042451894
-0.0032883082
0.040142899
-0.0035914858
0.037735556
-0.0038629013
0.035277477
-0.0041017441
0.032813491
-0.0043086045
0.030380926
-0.0044851051
0.028011114
-0.0046335175
0.025728538
-0.0047564919
0.023551676
-0.0048568365
0.02149341
-0.0049373698
0.019561832
-0.0050008134
0.017760959
-0.0050497233
0.016091487
-0.0050864423
0.014551485
0.01313701
-0.0051130644
-0.00031619603
0.051722876
-0.00051067012
0.051757238
-0.00076182702
0.051461401
-0.0010582775
0.050770129
-0.0013866552
0.049727513
-0.0017331355
0.048331412
-0.0020847631
0.046638709
-0.0024300651
0.04468217
-0.00275989
0.042522331
-0.0030673677
0.040207923
-0.0033480575
0.037794852
-0.0035995228
0.035330788
-0.0038210735
0.032860698
-0.0040132806
0.030421953
-0.004177641
0.028045968
-0.0043162201
0.025757285
-0.0044314111
0.023574467
-0.0045257374
0.021510483
-0.0046017263
0.019573524
-0.004661819
0.017767701
-0.0047083142
0.016093789
-0.00474333
0.014549911
0.013132155
-0.0047687843
-0.00030236497
0.051807282
-0.00048362454
0.051829963
-0.00071660675
0.051535894
-0.00099094779
0.050845514
-0.0012942683
0.049802459
-0.0016139585
0.048404822
-0.0019381238
0.046709659
-0.0022563139
0.044749848
-0.0025601891
0.042586201
-0.0028435252
0.040267515
-0.0031023218
0.037849899
-0.0033344087
0.035381047
-0.0035392046
0.032906029
-0.0037172616
0.030462224
-0.0038699579
0.0280811
-0.0039991662
0.02578723
-0.0041070368
0.023599235
-0.0041958219
0.021530161
-0.0042677678
0.019588287
-0.0043250408
0.01777782
-0.0043696834
0.016099626
-0.0044035867
0.014551904
0.013130792
-0.0044284735
-0.0002860152
0.051883907
-0.0004537656
0.051893794
-0.00066858229
0.05160128
-0.00092110405
0.0509119
-0.0011998859
0.049868619
-0.0014934895
0.048469936
-0.0017910149
0.046772917
-0.0020829865
0.044810622
-0.002361818
0.042644045
-0.0026218935
0.040322052
-0.0028596156
0.037900907
-0.003073062
0.03542831
-0.0032617483
0.032949402
-0.0034262101
0.030501546
-0.0035677164
0.028116237
-0.0036879641
0.02581805
-0.0037888815
0.023625648
-0.0038724703
0.021552127
-0.0039407144
0.019605846
-0.0039955195
0.017791102
-0.0040386811
0.016108858
-0.0040718657
0.014557395
0.013132924
-0.0040965993
-0.00026809909
0.051952757
-0.00042243381
0.051949746
-0.0006194875
0.051658589
-0.0008508645
0.050970303
-0.0011059969
0.049926955
-0.0013745628
0.048527634
-0.0016465866
0.046829253
-0.0019135135
0.044865132
-0.0021684501
0.04269635
-0.0024063492
0.04037187
-0.0026239783
0.03794805
-0.0028196445
0.0354726
-0.0029929477
0.032990696
-0.0031444095
0.030539678
-0.0032751994
0.028151039
-0.0033868575
0.025849341
-0.0034811125
0.023653263
-0.0035597409
0.021575933
-0.003624488
0.019625776
-0.0036770195
0.017807167
-0.0037188994
0.016121162
-0.00375158
0.014566133
0.013138367
-0.0037763955
-0.00024939548
0.052014144
-0.00039068747
0.051998752
-0.0005706653
0.051708769
-0.00078184115
0.051021646
-0.0010144736
0.049978346
-0.0012592869
0.048578722
-0.0015071642
0.046879372
-0.0017504094
0.044913966
-0.0019827649
0.042743572
-0.0021997094
0.040417279
-0.0023983399
0.03799149
-0.0025771721
0.035513932
-0.002735879
0.03302979
-0.002874969
0.030576372
-0.0029955211
0.028185152
-0.0030989364
0.025880666
-0.0031867665
0.023681588
-0.0032605889
0.021601063
-0.0033219368
0.019647559
-0.0033722601
0.017825521
-0.003412912
0.016136087
-0.0034451462
0.014577721
-0.0034701163
0.013146793
-0.00078408665
0.013116377
-0.00082969907
0.012692997
-0.00087188574
0.012251242
-0.00091055821
0.011795114
-0.00094570785
0.011328487
-0.00097739329
0.01085505
-0.0010057278
0.010378269
-0.0010308674
0.0099013482
-0.001052999
0.0094272067
-0.0010723311
0.008958468
-0.0010890845
0.008497449
-0.0011034849
0.008046163
-0.0011157573
0.0076063257
-0.0011261207
0.0071793669
-0.0011347848
0.0067664457
-0.0011419474
0.0063684697
-0.0011477927
0.0059861147
-0.0011524903
0.0056198466
-0.0011561948
0.005269943
-0.0011590458
0.0049365151
-0.0011611686
0.0046195292
-0.0011626745
0.0043188268
-0.0011636621
0.0040341435
-0.0011642177
0.003765127
-0.0011644169
0.003511353
-0.0011643251
0.0032723399
0.003047562
-0.0011639988
-0.0014860736
0.013140572
-0.0015272726
0.012714593
-0.0015644645
0.01227037
-0.0015977874
0.011811919
-0.0016274181
0.011343127
-0.0016535638
0.01086769
-0.0016764529
0.010389076
-0.0016963276
0.0099104877
-0.001713437
0.009434843
-0.0017280307
0.0089647589
-0.0017403544
0.008502545
-0.0017506456
0.0080502059
-0.0017591305
0.0076094474
-0.0017660219
0.0071816892
-0.0017715179
0.0067680799
-0.0017758007
0.0063695168
-0.0017790367
0.0059866655
-0.0017813762
0.005619982
-0.0017829541
0.0052697346
-0.001783891
0.0049360264
-0.0017842929
0.0046188151
-0.0017842533
0.0043179352
-0.0017838538
0.0040331156
-0.001783165
0.003763998
-0.001782248
0.0035101527
-0.001781155
0.0032710937
0.0030462909
-0.0017799303
-0.0023710379
0.013162885
-0.0024193295
0.012734185
-0.0024626355
0.012287397
-0.0025011665
0.011826556
-0.0025351744
0.011355555
-0.0025649414
0.010878095
-0.0025907707
0.010397646
-0.0026129769
0.0099174081
-0.0026318783
0.0094402923
-0.0026477903
0.008968908
-0.0026610198
0.0085055552
-0.0026718609
0.0080522274
-0.0026805918
0.007610619
-0.0026874723
0.0071821376
-0.0026927429
0.0067679198
-0.0026966235
0.006368851
-0.0026993139
0.0059855857
-0.002700994
0.005618569
-0.0027018242
0.0052680593
-0.0027019465
0.0049341499
-0.0027014872
0.0046167915
-0.0027005556
0.0043158095
-0.0026992471
0.0040309266
-0.0026976441
0.003761778
-0.0026958169
0.0035079288
-0.0026938258
0.003268888
0.0030441216
-0.0026917215
-0.0032933113
0.013182564
-0.0033473942
0.012751083
-0.0033956226
0.012301698
-0.0034382775
0.011838456
-0.0034756818
0.011365258
-0.0035081888
0.010885808
-0.003536171
0.010403573
-0.0035600095
0.0099217476
-0.0035800862
0.0094432356
-0.0035967758
0.0089706358
-0.0036104403
0.0085062362
-0.0036214244
0.0080520175
-0.0036300523
0.0076096606
-0.0036366255
0.0071805595
-0.0036414213
0.0067658375
-0.0036446927
0.0063663672
-0.0036466684
0.0059827906
-0.0036475533
0.0056155414
-0.0036475298
0.0052648674
-0.0036467593
0.0049308524
-0.0036453818
0.0046134366
-0.003643521
0.0043124396
-0.0036412838
0.0040275765
-0.0036387613
0.0037584761
-0.0036360314
0.0035046976
-0.0036331598
0.0032657453
0.0030410813
-0.0036302015
-0.0041882783
0.013198839
-0.0042463914
0.012764578
-0.0042979298
0.012312622
-0.0043432406
0.011847026
-0.0043827131
0.011371698
-0.0044167653
0.010890341
-0.0044458317
0.010406417
-0.0044703526
0.0099231142
-0.0044907649
0.0094433245
-0.0045074943
0.0089696341
-0.0045209496
0.008504317
-0.0045315177
0.008049339
-0.0045395606
0.0076063658
-0.0045454132
0.0071767766
-0.0045493827
0.0067616798
-0.0045517478
0.0063619342
-0.0045527595
0.0059781687
-0.0045526418
0.0056108049
-0.0045515935
0.0052600793
-0.0045497891
0.0049260657
-0.0045473816
0.0046086958
-0.0045445027
0.0043077801
-0.0045412655
0.0040230265
-0.0045377679
0.0037540588
-0.0045340929
0.0035004311
-0.0045303101
0.0032616427
0.0030371513
-0.004526477
-0.0049992629
0.013210951
-0.0050593008
0.012773959
-0.0051122131
0.012319503
-0.0051584086
0.011851646
-0.0051983368
0.011374299
-0.0052324732
0.010891161
-0.0052613065
0.010405687
-0.0052853275
0.0099210552
-0.005305019
0.0094401434
-0.0053208489
0.0089655229
-0.0053332629
0.0084994512
-0.0053426814
0.0080438773
-0.0053494954
0.0076004499
-0.005354065
0.0071705314
-0.0053567187
0.0067552147
-0.0053577536
0.0063553436
-0.0053574357
0.005971533
-0.0053560017
0.0056041919
-0.0053536604
0.0052535455
-0.0053505948
0.004919657
-0.0053469636
0.0046024494
-0.0053429041
0.004301725
-0.005338534
0.004017185
-0.0053339522
0.0037484464
-0.0053292419
0.0034950581
-0.0053244734
0.003256516
0.0030322743
-0.0053197051
-0.0056829436
0.013218272
-0.0057426944
0.012778627
-0.0057949425
0.012321772
-0.0058401532
0.011851775
-0.0058788295
0.011372547
-0.0059114973
0.010887783
-0.0059386915
0.010400926
-0.0059609447
0.0099151408
-0.0059787771
0.00943329
-0.005992689
0.0089579265
-0.0060031548
0.0084912891
-0.0060106188
0.0080353075
-0.0060154921
0.0075916118
-0.0060181516
0.0071615463
-0.0060189391
0.0067461866
-0.0060181621
0.0063463604
-0.0060160949
0.0059626682
-0.0060129799
0.0055955056
-0.00600903
0.0052450859
-0.0060044303
0.004911462
-0.0059993409
0.0045945475
-0.0059938992
0.0042941373
-0.0059882219
0.0040099255
-0.0059824074
0.0037415238
-0.0059765381
0.0034884761
-0.0059706813
0.0032502738
0.003026368
-0.0059648916
-0.0062124745
0.013220448
-0.0062698887
0.012778236
-0.0063195847
0.012319089
-0.0063620784
0.01184708
-0.0063979197
0.011366117
-0.0064276776
0.010879888
-0.0064519254
0.010391823
-0.0064712296
0.0099050701
-0.0064861394
0.0094224733
-0.0064971797
0.008946565
-0.0065048449
0.0084795625
-0.0065095954
0.0080233741
-0.0065118545
0.0075796091
-0.006512008
0.0071495918
-0.006510404
0.0067343791
-0.0065073536
0.0063347816
-0.0065031327
0.005951384
-0.0064979834
0.0055845681
-0.0064921169
0.005234535
-0.0064857161
0.0049013268
-0.0064789376
0.004584848
-0.0064719144
0.0042848854
-0.0064647588
0.004001127
-0.0064575644
0.0037331786
-0.0064504084
0.0034805802
-0.0064433538
0.0032428192
0.0030193439
-0.006436451
-0.006577913
0.01321748
-0.0066313109
0.012772773
-0.0066769114
0.012311425
-0.0067152741
0.011837515
-0.0067469893
0.011354946
-0.0067726617
0.010867398
-0.0067928965
0.010378285
-0.0068082868
0.0098907379
-0.0068194043
0.009407578
-0.0068267915
0.0089313149
-0.0068309564
0.0084641421
-0.0068323687
0.0080079441
-0.006831458
0.0075643069
-0.0068286133
0.0071345329
-0.0068241829
0.0067196587
-0.006818476
0.006320476
-0.0068117649
0.0059375531
-0.0068042872
0.0055712569
-0.0067962481
0.0052217752
-0.0067878235
0.0048891393
-0.0067791629
0.0045732444
-0.0067703921
0.0042738694
-0.0067616158
0.0039906955
-0.0067529199
0.0037233235
-0.006744374
0.0034712888
-0.0067360336
0.0032340758
0.0030111302
-0.0067279419
-0.0067841267
0.013209735
-0.0068323099
0.012762569
-0.0068727192
0.012299073
-0.0069059505
0.011823333
-0.0069326275
0.011339249
-0.0069533846
0.010850488
-0.0069688522
0.010360451
-0.006979645
0.0098722478
-0.0069863518
0.0093886763
-0.0069895279
0.0089122208
-0.0069896904
0.0084450482
-0.0069873143
0.007989017
-0.0069828312
0.0075456875
-0.0069766292
0.0071163379
-0.0069690533
0.0067019825
-0.0069604077
0.0063033925
-0.0069509577
0.005921118
-0.0069409326
0.0055555097
-0.0069305291
0.0052067419
-0.0069199137
0.0048748341
-0.0069092262
0.0045596712
-0.0068985824
0.0042610242
-0.0068880771
0.0039785676
-0.0068777869
0.0037118969
-0.0068677721
0.0034605432
-0.006858079
0.0032239877
0.0030016738
-0.0068487423
-0.0068469257
0.013197891
-0.0068892038
0.012748252
-0.0069237985
0.012282608
-0.006951334
0.011805051
-0.0069724599
0.01131948
-0.0069878342
0.010829555
-0.0069981079
0.010338661
-0.007003913
0.0098498867
-0.0070058518
0.0093660052
-0.0070044899
0.0088894738
-0.0070003511
0.0084224311
-0.0069939136
0.0079667069
-0.0069856097
0.0075238336
-0.0069758247
0.0070950628
-0.0069648993
0.0066813837
-0.0069531308
0.0062835455
-0.0069407764
0.0059020778
-0.0069280564
0.0055373139
-0.0069151569
0.0051894129
-0.0069022339
0.0048583812
-0.0068894162
0.0045440934
-0.0068768087
0.0042463112
-0.0068644951
0.0039647022
-0.0068525411
0.0036988561
-0.0068409967
0.0034482999
-0.0068298984
0.0032125116
0.0029909323
-0.0068192714
-0.006788537
0.013182857
-0.0068246999
0.012730673
-0.0068533045
0.012262815
-0.0068749937
0.011783386
-0.0068904359
0.011296288
-0.0069003062
0.010805175
-0.0069052719
0.010313419
-0.006905979
0.0098240892
-0.0069030416
0.0093399344
-0.0068970346
0.0088633838
-0.006888488
0.0083965461
-0.0068778838
0.0079412202
-0.0068656551
0.0074989082
-0.0068521856
0.0070708325
-0.0068378119
0.0066579552
-0.0068228257
0.0062610002
-0.0068074766
0.0058804748
-0.0067919759
0.0055166927
-0.0067765002
0.0051697958
-0.0067611947
0.0048397763
-0.0067461775
0.0045264964
-0.0067315422
0.0042297083
-0.0067173616
0.0039490715
-0.0067036904
0.0036841694
-0.0066905678
0.0034345244
-0.00667802
0.003199611
0.0029788679
-0.0066660626
-0.0066334743
0.013165691
-0.0066637345
0.012710837
-0.0066865711
0.012240633
-0.0067026351
0.011759204
-0.0067126043
0.011270461
-0.0067171651
0.010778057
-0.0067169958
0.010285356
-0.0067127539
0.0097954087
-0.0067050642
0.0093109428
-0.0066945107
0.0088343594
-0.0066816313
0.0083677366
-0.0066669134
0.0079128413
-0.0066507931
0.0074711429
-0.0066336554
0.0070438323
-0.0066158356
0.0066318412
-0.0065976219
0.006235866
-0.006579259
0.0058563888
-0.0065609513
0.0054937008
-0.0065428677
0.0051479248
-0.0065251444
0.0048190362
-0.00650789
0.0045068837
-0.006491188
0.0042112079
-0.0064751009
0.0039316592
-0.0064596733
0.0036678138
-0.0064449344
0.0034191887
-0.0064309003
0.0031852544
0.0029654471
-0.0064175772
-0.006405457
0.013147523
-0.0064303741
0.012689827
-0.0064479966
0.012217092
-0.0064589714
0.01173347
-0.0064639755
0.01124289
-0.0064636979
0.010749014
-0.0064588231
0.010255203
-0.0064500163
0.009764497
-0.0064379117
0.0092796028
-0.0064231032
0.008802897
-0.0064061377
0.0083364277
-0.0063875112
0.007881929
-0.0063676666
0.0074408365
-0.0063469937
0.0070143069
-0.0063258306
0.0066032393
-0.0063044663
0.006208299
-0.0062831441
0.0058299399
-0.0062620656
0.005468428
-0.0062413946
0.0051238639
-0.0062212616
0.004796204
-0.006201768
0.0044852805
-0.0061829895
0.004190821
-0.0061649803
0.0039124648
-0.006147776
0.0036497798
-0.0061313971
0.0034022763
-0.0061158512
0.0031694202
0.002950644
-0.0061011356
-0.0061255535
0.013129481
-0.0061459445
0.012668745
-0.0061591604
0.012193253
-0.0061658293
0.011707195
-0.0061666154
0.011214528
-0.0061622008
0.010718931
-0.0061532681
0.010223771
-0.0061404858
0.0097320859
-0.0061244949
0.0092465684
-0.0061058986
0.0087695736
-0.0060852549
0.0083031224
-0.0060630708
0.0078489168
-0.0060397999
0.0074083577
-0.0060158412
0.0069825663
-0.0059915408
0.0065724063
-0.0059671931
0.0061785091
-0.0059430452
0.0058012973
-0.0059193002
0.0054410081
-0.0058961215
0.0050977166
-0.0058736376
0.0047713571
-0.0058519461
0.0044617431
-0.0058311182
0.0041685859
-0.0058112022
0.0038915122
-0.0057922274
0.0036300794
-0.0057742074
0.0033837898
-0.0057571425
0.0031521032
0.002934448
-0.0057410229
-0.0058113695
0.013112614
-0.0058282083
0.012648645
-0.0058379891
0.012170157
-0.0058413049
0.011681391
-0.0058387921
0.011186343
-0.0058311135
0.010688724
-0.0058189406
0.010191917
-0.0058029381
0.0096989658
-0.0057837492
0.0092125587
-0.0057619848
0.008735036
-0.0057382136
0.0082683954
-0.0057129559
0.0078143094
-0.0056866791
0.0073741452
-0.0056597962
0.0069489874
-0.0056326657
0.0065396628
-0.0056055932
0.0061467662
-0.0055788347
0.0057706854
-0.0055526002
0.0054116257
-0.0055270576
0.0050696331
-0.0055023382
0.0047446163
-0.0054785401
0.0044363665
-0.0054557335
0.0041445765
-0.0054339645
0.0038688573
-0.0054132589
0.0036087538
-0.0053936259
0.0033637583
-0.0053750609
0.0031333228
0.0029168704
-0.0053575485
-0.0054769272
0.013097806
-0.0054912621
0.012630487
-0.0054986603
0.012148772
-0.0054996635
0.011657019
-0.0054948683
0.011159281
-0.005484905
0.010659307
-0.0054704225
0.010160512
-0.0054520722
0.0096659565
-0.0054304931
0.0091783355
-0.0054062992
0.0086999829
-0.0053800684
0.0082328799
-0.0053523342
0.0077786745
-0.00532358
0.0073387023
-0.005294236
0.0069140124
-0.0052646776
0.0065053935
-0.0052352265
0.0061134019
-0.0052061529
0.0057383879
-0.0051776791
0.0053805214
-0.0051499831
0.0050398158
-0.0051232034
0.0047161505
-0.0050974439
0.0044092911
-0.0050727779
0.0041189083
-0.0050492531
0.0038445947
-0.0050268951
0.0035858796
-0.0050057118
0.0033422432
-0.0049856962
0.003113128
0.0028979496
-0.0049668298
-0.0051331436
0.013085966
-0.0051459161
0.012615002
-0.0051519604
0.012129929
-0.0051516895
0.011634936
-0.0051456432
0.011134205
-0.0051344065
0.01063154
-0.005118592
0.010130398
-0.0050988262
0.0096338702
-0.0050757344
0.0091446705
-0.0050499268
0.0086651377
-0.0050219858
0.008197246
-0.0049924563
0.007742625
-0.0049618377
0.0073025837
-0.0049305788
0.0068781381
-0.0048990751
0.0064700394
-0.0048676684
0.0060788046
-0.004836648
0.0057047444
-0.0048062533
0.0053479902
-0.0047766775
0.0050085195
-0.0047480718
0.0046861789
-0.00472055
0.0043807044
-0.0046941935
0.0040917413
-0.0046690552
0.0038188602
-0.0046451648
0.0035615721
-0.0046225317
0.0033193422
-0.0046011497
0.0030916012
0.0028777553
-0.0045809993
-0.0047879336
0.013077454
-0.0048001977
0.012602943
-0.0048058057
0.012114266
-0.0048052155
0.011615838
-0.0047988939
0.011111856
-0.0047873602
0.010606187
-0.0047711759
0.010102347
-0.0047509291
0.0096034729
-0.0047272201
0.009112311
-0.0047006459
0.0086312183
-0.0046717867
0.008162173
-0.004641194
0.007706796
-0.0046093805
0.0072663763
-0.0045768135
0.0068419012
-0.0045439098
0.0064340867
-0.0045110336
0.0060434111
-0.0044784967
0.0056701444
-0.0044465598
0.0053143775
-0.0044154357
0.0049760489
-0.0043852928
0.0046549688
-0.0043562595
0.0043508405
-0.0043284294
0.0040632797
-0.0043018651
0.0037918316
-0.0042766034
0.003535986
-0.0042526594
0.0032951898
-0.00423003
0.0030688593
0.0028563892
-0.004208698
-0.0044474398
0.01307264
-0.0044598038
0.012594565
-0.0044657949
0.012102273
-0.0044657394
0.011600276
-0.0044599883
0.011092802
-0.0044490397
0.01058388
-0.0044333735
0.010077022
-0.0044135255
0.0095754445
-0.004390059
0.0090819404
-0.0043635475
0.0085988995
-0.0043345598
0.0081283168
-0.004303647
0.0076718153
-0.0042713304
0.007230673
-0.0042380925
0.006805855
-0.0042043705
0.0063980466
-0.0041705517
0.0060076894
-0.0041369722
0.005635013
-0.0041039168
0.0052800669
-0.0040716212
0.0049427483
-0.0040402747
0.0046228283
-0.0040100245
0.0043199736
-0.0039809801
0.0040337673
-0.0039532176
0.0037637256
-0.0039267848
0.0035093133
-0.0039017052
0.0032699563
-0.0038779824
0.0030450534
0.0028339854
-0.0038556038
-0.0041158568
0.013071595
-0.0041288862
0.012590054
-0.0041358398
0.012094176
-0.0041369431
0.011588547
-0.0041325254
0.011077509
-0.0041228578
0.010565043
-0.0041084727
0.010054944
-0.0040897982
0.0095503429
-0.0040673508
0.0090541439
-0.0040416692
0.0085687808
-0.0040133003
0.0080962785
-0.0039827856
0.0076382749
-0.0039506476
0.0071960475
-0.003917379
0.0067705478
-0.0038834339
0.0063624367
-0.0038492209
0.0059721229
-0.0038151002
0.005599798
-0.0037813817
0.0052454698
-0.0037483259
0.0049089935
-0.0037161457
0.0045900986
-0.0036850098
0.0042884128
-0.0036550467
0.004003483
-0.0036263493
0.003734793
-0.0035989794
0.0034817794
-0.003572972
0.0032438439
-0.0035483402
0.0030203649
0.0028107065
-0.0035250784
-0.0037962321
0.0130742
-0.0038102713
0.01258937
-0.0038185832
0.012090012
-0.0038213062
0.011580782
-0.0038186455
0.011066095
-0.0038109177
0.01055006
-0.0037983922
0.010036443
-0.0037815176
0.009528573
-0.0037607428
0.0090293785
-0.0037365568
0.0085413553
-0.0037094726
0.0080665739
-0.0036800112
0.0076067002
-0.0036486874
0.0071630239
-0.0036159968
0.0067364933
-0.0035824047
0.006327753
-0.0035483377
0.0059371849
-0.0035141779
0.0055649457
-0.0034802596
0.0052110039
-0.0034468683