/*--------------------------------*- C++ -*----------------------------------*\
  =========                 |
  \\      /  F ield         | OpenFOAM: The Open Source CFD Toolbox
   \\    /   O peration     | Website:  https://openfoam.org
    \\  /    A nd           | Version:  8
     \\/     M anipulation  |
\*---------------------------------------------------------------------------*/
FoamFile
{
    version     2.0;
    format      ascii;
    class       volScalarField;
    location    "30";
    object      p;
}
// * * * * * * * * * * * * * * * * * * * * * * * * * * * * * * * * * * * * * //

dimensions      [0 2 -2 0 0 0 0];

internalField   nonuniform List<scalar> 
23125
(
0.15958193
0.16195246
0.16586141
0.1706433
0.1757847
0.18090913
0.18576055
0.19018382
0.19409946
0.19749107
0.20037757
0.20280107
0.20481493
0.20647551
0.20783709
0.20894897
0.2098543
0.21058985
0.21118648
0.21166977
0.21206082
0.21237689
0.21263213
0.212838
0.21300374
0.15776715
0.1602023
0.16424
0.16922034
0.17462771
0.18007474
0.18528713
0.19008895
0.19438529
0.1981366
0.20135033
0.20406049
0.20631642
0.20817431
0.20969125
0.21092153
0.21191456
0.21271373
0.2133561
0.21387255
0.21428829
0.21462359
0.2148945
0.21511372
0.21529133
0.15383518
0.15639612
0.16069467
0.16608496
0.17205094
0.1781863
0.18418334
0.1898236
0.19497238
0.19955647
0.20355873
0.20699796
0.20991696
0.21237108
0.21441991
0.21612168
0.21752999
0.21869224
0.21964933
0.22043597
0.22108136
0.22160995
0.22204209
0.22239467
0.22268159
0.14851363
0.15120259
0.15578595
0.16164972
0.16829134
0.17529238
0.18230939
0.18907319
0.19539062
0.20113991
0.20625971
0.21073796
0.2145977
0.21788448
0.22065609
0.22297505
0.22490339
0.22649945
0.22781604
0.22889961
0.22979008
0.23052109
0.23112067
0.2316119
0.23201364
0.14247127
0.14523642
0.15002648
0.15628303
0.16354386
0.1713992
0.17948238
0.18747813
0.19512974
0.20225213
0.20872427
0.21448809
0.21953484
0.22389245
0.22761287
0.23076117
0.2334072
0.23561969
0.23746265
0.23899343
0.24026205
0.24131136
0.2421776
0.24289116
0.24347737
0.13607646
0.1388417
0.14371075
0.1502036
0.15792579
0.16650539
0.1755777
0.18479652
0.19384945
0.20248158
0.21050232
0.2177917
0.22429273
0.23000018
0.23494662
0.239189
0.24279734
0.24584627
0.24840918
0.25055472
0.25234483
0.25383412
0.25506977
0.2560921
0.25693516
0.1295549
0.13224153
0.13704936
0.14359352
0.15156955
0.16067015
0.17056299
0.18089644
0.19131983
0.20151347
0.21121197
0.22021906
0.22841085
0.23572931
0.24217035
0.24776935
0.25258745
0.25669989
0.26018717
0.26312879
0.26559943
0.26766678
0.2693907
0.27082326
0.27200909
0.12310153
0.12563882
0.13025204
0.1366596
0.14465988
0.15403091
0.16450063
0.17574204
0.18739244
0.19908458
0.21048235
0.22130728
0.23135453
0.24049558
0.24867166
0.25588065
0.26216196
0.26758199
0.27222186
0.27616811
0.27950624
0.28231671
0.28467274
0.28663943
0.28827369
0.1168867
0.11921722
0.12352152
0.12962025
0.13741795
0.14678927
0.15754381
0.16940819
0.18203791
0.19504589
0.2080422
0.22067205
0.23264444
0.24374736
0.25384991
0.26289409
0.27088073
0.27785347
0.28388361
0.28905765
0.29346767
0.29720482
0.30035514
0.30299733
0.30520173
0.11103474
0.11311741
0.11702522
0.12267374
0.13006783
0.13918085
0.14991614
0.16207619
0.17536452
0.18940574
0.20378371
0.21808493
0.23193799
0.24504224
0.25718157
0.26822477
0.278116
0.28685964
0.29450369
0.30112434
0.30681317
0.31166756
0.31578398
0.31925386
0.32216112
0.1056201
0.10743041
0.11088382
0.11597925
0.12281064
0.13144328
0.14187679
0.1540026
0.16759517
0.18232095
0.19776914
0.21349429
0.2290617
0.24408765
0.25826611
0.27138056
0.28330244
0.29398004
0.30342249
0.31168271
0.31884176
0.32499608
0.33024792
0.33469871
0.33844479
0.10067806
0.10220632
0.10517509
0.10965388
0.115811
0.12379192
0.13368652
0.14547794
0.15902555
0.17406075
0.19020794
0.20702019
0.22402541
0.24077333
0.25687371
0.27202084
0.28600261
0.29869661
0.31005765
0.32010093
0.32888484
0.33649537
0.3430336
0.34860627
0.35331922
0.096216993
0.097465306
0.099942449
0.1037758
0.10919312
0.11640518
0.12558093
0.13679007
0.14998033
0.1649622
0.18141851
0.19892975
0.21701576
0.2351841
0.25297598
0.2700021
0.28596361
0.30065797
0.31397274
0.32587169
0.3363776
0.34555502
0.35349508
0.3603033
0.36609045
0.092226924
0.09320603
0.095202317
0.098389676
0.10304111
0.10941814
0.11775466
0.12819613
0.14077471
0.15538422
0.1717802
0.18959329
0.20836284
0.22758158
0.24674464
0.26539353
0.28314803
0.29972303
0.31493095
0.32867316
0.34092505
0.35171849
0.36112503
0.36924116
0.37617657
0.088685389
0.089411783
0.090950607
0.093512395
0.097403451
0.10292233
0.11035381
0.1199061
0.13168596
0.14566738
0.16168383
0.17943036
0.19848756
0.21835897
0.23851866
0.25845911
0.2777317
0.29597384
0.31292115
0.32840625
0.34234811
0.35473619
0.36561307
0.37505795
0.38317265
0.085562178
0.086055734
0.087168547
0.08913974
0.092298973
0.096970663
0.10347727
0.11207621
0.1229371
0.13610556
0.15149084
0.16885833
0.18784384
0.20798214
0.22874959
0.24961197
0.27007001
0.28969503
0.30815054
0.32519946
0.34069948
0.35459052
0.36687839
0.37761737
0.3868946
0.082823048
0.083105197
0.083828008
0.085252564
0.08772433
0.091584309
0.09718177
0.10481117
0.1146922
0.12693133
0.14150674
0.15825313
0.17686801
0.19693094
0.21793933
0.23935308
0.26064173
0.28132576
0.30100637
0.31938103
0.33624576
0.35148744
0.36506971
0.37701591
0.38739238
0.080433285
0.080525022
0.080895572
0.081822205
0.083660291
0.086760715
0.091490474
0.098170588
0.10705955
0.11831312
0.13196893
0.14792562
0.16594266
0.18565125
0.20658279
0.22820818
0.24998391
0.27139618
0.2919967
0.31142572
0.32942142
0.34581765
0.36053355
0.37355757
0.38493066
0.078356102
0.078279795
0.078335582
0.07881454
0.080077562
0.082480257
0.086400684
0.092178173
0.1000998
0.11036012
0.12304616
0.13811257
0.1553769
0.17452345
0.19512468
0.21667452
0.23863133
0.26046248
0.28168395
0.30188935
0.32076578
0.33809742
0.35375928
0.36770344
0.37994257
0.076558711
0.076334715
0.076112137
0.076193029
0.07694079
0.078712428
0.081891882
0.086830331
0.093835562
0.10313162
0.11484527
0.12897854
0.14540085
0.1638472
0.18393355
0.20518402
0.22706973
0.24905208
0.27062424
0.29134438
0.31085706
0.32890225
0.34531368
0.3600077
0.37296773
0.0750095
0.074656854
0.07419049
0.073920777
0.074211972
0.075420067
0.077931458
0.08210452
0.088261195
0.096647553
0.10742167
0.12062449
0.13617015
0.15383979
0.17329189
0.19408391
0.21570667
0.23762532
0.25932107
0.28032718
0.30025461
0.31880586
0.33577778
0.35105339
0.36458744
0.07368139
0.073216114
0.072537824
0.071961963
0.071852486
0.072563052
0.074480018
0.07796554
0.08335112
0.090898782
0.10079074
0.11309937
0.12777635
0.14464333
0.1633983
0.18363222
0.2048593
0.22655493
0.24819676
0.26930213
0.28945685
0.30833292
0.32569551
0.34139789
0.35536797
0.072546184
0.071984969
0.071123795
0.07028268
0.069824756
0.070100428
0.071494597
0.074370943
0.079066876
0.085855868
0.094938512
0.10641215
0.12025938
0.1363366
0.15437707
0.17400362
0.19475491
0.21612047
0.23758031
0.25864293
0.27887631
0.29792853
0.31553843
0.33153366
0.34581796
0.071588222
0.070938467
0.06992055
0.068851433
0.068093043
0.06799225
0.068931548
0.071274603
0.075362393
0.081476337
0.089830841
0.10054287
0.11362018
0.12894835
0.14629142
0.16530121
0.18554028
0.206514
0.2277086
0.24862898
0.26883117
0.28794513
0.30568838
0.32186713
0.33636406
0.070803915
0.070054144
0.06890281
0.067639334
0.066624091
0.066200381
0.066747949
0.068629554
0.072187933
0.07771001
0.085420484
0.095451618
0.10783139
0.1224696
0.13915651
0.15756965
0.17729377
0.19785039
0.21873402
0.2394496
0.25954566
0.27863887
0.29642985
0.31270712
0.3273356
0.21314861
0.21328682
0.21341842
0.21354335
0.21366155
0.21377296
0.21387753
0.2139752
0.21406592
0.21414963
0.21422627
0.2142958
0.21435814
0.21441324
0.21446104
0.21450144
0.21453423
0.21455913
0.21457704
0.21459106
0.21460197
0.21460564
0.21459994
0.21458805
0.21457247
0.21544802
0.21559875
0.21574329
0.21588152
0.21601336
0.21613875
0.21625759
0.21636982
0.21647536
0.21657415
0.21666612
0.21675122
0.21682939
0.21690057
0.21696476
0.217022
0.21707188
0.21711247
0.21714201
0.21715858
0.21716038
0.21714971
0.21712979
0.21710779
0.21708201
0.22293491
0.22317914
0.22341424
0.22364012
0.22385664
0.2240637
0.2242612
0.22444903
0.22462709
0.22479527
0.22495349
0.22510165
0.22523966
0.22536744
0.22548487
0.22559179
0.2256882
0.22577571
0.22585608
0.22592941
0.22599567
0.22605495
0.2261044
0.22613988
0.22615974
0.23237039
0.23271629
0.23305111
0.23337463
0.23368663
0.23398691
0.23427527
0.2345515
0.23481541
0.23506681
0.23530552
0.23553137
0.23574417
0.23594376
0.23612999
0.23630269
0.23646168
0.23660682
0.23673804
0.23685521
0.23695819
0.2370469
0.23712124
0.237181
0.23722605
0.24399985
0.24450833
0.24500245
0.24548187
0.24594623
0.24639519
0.24682843
0.24724561
0.24764641
0.24803053
0.24839764
0.24874746
0.24907969
0.24939404
0.24969025
0.24996804
0.25022716
0.25046738
0.25068844
0.25089011
0.2510722
0.25123448
0.25137677
0.25149889
0.2516007
0.25768907
0.25842526
0.25914318
0.25984226
0.26052193
0.26118162
0.26182079
0.26243889
0.26303539
0.26360976
0.26416148
0.26469004
0.26519495
0.26567572
0.26613188
0.26656298
0.26696858
0.26734825
0.26770157
0.26802816
0.26832765
0.26859967
0.26884388
0.26905997
0.26924763
0.27307298
0.27411531
0.27513517
0.27613164
0.27710381
0.27805077
0.27897162
0.27986547
0.28073143
0.28156862
0.28237619
0.28315329
0.28389907
0.28461273
0.28529347
0.28594051
0.2865531
0.2871305
0.28767201
0.28817694
0.28864465
0.28907452
0.28946596
0.28981842
0.29013136
0.28974472
0.29119067
0.29261015
0.29400172
0.29536395
0.2966954
0.29799464
0.29926024
0.30049079
0.30168487
0.30284107
0.30395801
0.30503432
0.30606866
0.3070597
0.30800615
0.30890674
0.30976025
0.31056548
0.31132127
0.31202652
0.31268017
0.31328121
0.31382866
0.31432164
0.3071927
0.30915638
0.31109069
0.31299346
0.31486252
0.31669566
0.31849068
0.32024537
0.3219575
0.32362485
0.32524521
0.32681637
0.32833614
0.32980236
0.33121288
0.3325656
0.33385845
0.33508941
0.33625651
0.33735783
0.33839152
0.33935581
0.34024899
0.34106944
0.34181562
0.32479637
0.32740483
0.3299835
0.33252923
0.33503884
0.33750907
0.33993663
0.34231821
0.34465044
0.34692994
0.3491533
0.35131712
0.35341799
0.35545252
0.35741734
0.3593091
0.36112452
0.36286035
0.36451341
0.3660806
0.36755891
0.36894542
0.37023732
0.37143192
0.37252669
0.34185338
0.3452402
0.34860111
0.35193174
0.35522758
0.35848402
0.36169635
0.36485973
0.36796926
0.37101996
0.37400677
0.3769246
0.37976831
0.38253274
0.38521273
0.38780315
0.39029887
0.39269484
0.39498606
0.39716764
0.39923478
0.40118282
0.40300725
0.40470373
0.40626812
0.35762503
0.36192071
0.36620082
0.37045953
0.37469077
0.37888824
0.38304545
0.38715567
0.39121201
0.39520738
0.39913455
0.40298614
0.40675466
0.41043254
0.4140121
0.41748568
0.42084558
0.42408411
0.42719365
0.43016668
0.43299578
0.43567369
0.43819335
0.44054794
0.44273088
0.37140036
0.37672049
0.38204404
0.38736364
0.39267148
0.39795937
0.40321872
0.40844058
0.41361562
0.41873417
0.42378627
0.42876161
0.43364966
0.43843965
0.4431206
0.44768139
0.4521108
0.45639753
0.46053029
0.46449784
0.46828903
0.47189288
0.47529863
0.47849582
0.48147431
0.38256851
0.38900147
0.39546742
0.40195753
0.40846226
0.41497147
0.42147436
0.4279595
0.43441484
0.44082773
0.44718494
0.45347268
0.45967665
0.46578208
0.47177379
0.47763623
0.48335354
0.48890965
0.49428835
0.49947335
0.50444839
0.50919734
0.51370427
0.51795359
0.52193013
0.39068593
0.39828235
0.4059531
0.41368821
0.42147671
0.42930668
0.43716522
0.44503844
0.45291148
0.46076847
0.46859259
0.47636609
0.48407033
0.4916858
0.49919221
0.50656858
0.51379328
0.52084418
0.52769871
0.53433404
0.54072717
0.54685509
0.55269493
0.55822414
0.56342062
0.39552433
0.40429056
0.4131843
0.4221951
0.43131112
0.4405192
0.44980474
0.45915172
0.46854265
0.47795855
0.48737897
0.49678196
0.50614414
0.51544073
0.52464562
0.53373145
0.54266973
0.55143096
0.55998479
0.56830017
0.57634558
0.5840892
0.59149919
0.59854387
0.60519201
0.39708958
0.40698644
0.41707475
0.42734445
0.43778374
0.448379
0.45911472
0.46997344
0.4809356
0.49197956
0.50308152
0.5142155
0.52535333
0.53646471
0.54751724
0.5584765
0.56930621
0.57996835
0.59042337
0.60063041
0.61054757
0.62013221
0.62934124
0.63813154
0.64646027
0.39560779
0.40655514
0.41776632
0.42923281
0.4409439
0.45288666
0.46504574
0.47740321
0.48993843
0.50262792
0.51544524
0.5283609
0.54134234
0.55435386
0.5673567
0.58030905
0.59316622
0.60588078
0.6184028
0.63068014
0.64265878
0.65428321
0.66549692
0.67624284
0.68646394
0.39148339
0.40336925
0.41559668
0.42815985
0.44105043
0.45425742
0.46776691
0.4815618
0.49562159
0.50992213
0.52443542
0.53912945
0.55396801
0.56891063
0.58391252
0.59892459
0.61389354
0.628762
0.64346884
0.65794945
0.67213617
0.68595885
0.6993454
0.71222249
0.72451625
0.38523941
0.39793185
0.41104548
0.42457833
0.43852563
0.45287964
0.46762921
0.4827595
0.49825155
0.51408197
0.53022257
0.54664008
0.56329584
0.58014558
0.5971393
0.61422115
0.63132949
0.64839697
0.66535083
0.68211322
0.69860175
0.71473009
0.73040877
0.74554603
0.76004885
0.37745269
0.39081217
0.40467107
0.41903218
0.43389539
0.44925736
0.46511102
0.48144514
0.49824376
0.51548573
0.53314419
0.5511861
0.56957176
0.58825445
0.60718012
0.62628712
0.64550617
0.66476035
0.68396532
0.70302972
0.72185573
0.7403398
0.75837368
0.77584546
0.79264092
0.36869538
0.38258573
0.39704952
0.41209499
0.42772749
0.44394901
0.46075765
0.47814697
0.49610533
0.51461524
0.53365266
0.55318632
0.57317702
0.59357711
0.61432988
0.63536917
0.65661912
0.67799407
0.69939863
0.72072811
0.74186907
0.76270025
0.78309365
0.80291602
0.82203043
0.35948943
0.3737861
0.388724
0.40431718
0.42057694
0.43751125
0.45512412
0.47341482
0.49237712
0.51199837
0.53225866
0.5531299
0.57457494
0.59654665
0.61898722
0.64182742
0.66498615
0.6883701
0.7118738
0.73537982
0.75875945
0.78187364
0.80457437
0.82670635
0.84810901
0.35027928
0.36487455
0.38017137
0.39618968
0.41294689
0.43045725
0.44873112
0.46777406
0.48758594
0.50815984
0.52948102
0.55152577
0.57426023
0.59763924
0.6216053
0.6460876
0.67100121
0.69624656
0.72170923
0.74726009
0.77275588
0.79804027
0.8229454
0.8472939
0.87090132
0.34141341
0.3562185
0.37177751
0.38811611
0.40525769
0.42322279
0.44202819
0.46168599
0.48220251
0.5035771
0.52580089
0.54885534
0.57271091
0.59732555
0.62264336
0.64859325
0.6750879
0.70202285
0.7292761
0.75670802
0.7841619
0.81146506
0.8384305
0.86485928
0.8905434
0.2145497
0.21705498
0.22616384
0.2372563
0.25168205
0.2694066
0.29040431
0.3147593
0.34248609
0.37351919
0.40769648
0.44473591
0.48422441
0.52561923
0.56826292
0.61141311
0.65428531
0.69610373
0.73615312
0.77382398
0.80864491
0.8402981
0.86861885
0.89357891
0.91526915
0.21451688
0.21447514
0.21442562
0.21436866
0.21430428
0.21423245
0.21415315
0.21406636
0.21397208
0.21387034
0.21376119
0.21364462
0.21352061
0.21338917
0.2132503
0.21310402
0.21295036
0.21278933
0.21262096
0.21244526
0.21226226
0.21207199
0.21187445
0.21702401
0.216985
0.21693747
0.21688203
0.21681878
0.21674629
0.21666525
0.21658012
0.21649401
0.21640291
0.21629946
0.21618311
0.21605732
0.21592358
0.21578222
0.21563325
0.21547662
0.21531236
0.21514048
0.21496101
0.214774
0.21457949
0.21437754
0.22615397
0.2261324
0.22609887
0.2260501
0.22598748
0.22591887
0.22584212
0.22574939
0.22564068
0.22552171
0.22539682
0.2252639
0.2251203
0.22496561
0.22479976
0.22462284
0.22443491
0.22423603
0.22402625
0.22380563
0.22357421
0.22333207
0.22307926
0.23727165
0.23727204
0.23725748
0.23723003
0.23719167
0.23713799
0.2370654
0.23697603
0.23687121
0.23675131
0.23661653
0.23646683
0.23630214
0.2361224
0.23592768
0.23571802
0.2354935
0.23525417
0.23500011
0.2347314
0.23444813
0.2341504
0.2338383
0.2517428
0.25178281
0.25180192
0.25180006
0.2517773
0.25173354
0.25166847
0.25158213
0.25147461
0.25134588
0.25119592
0.25102473
0.25083235
0.25061884
0.25038426
0.25012868
0.2498522
0.24955491
0.24923693
0.2488984
0.24853946
0.24816027
0.24776101
0.26953662
0.26963745
0.2697089
0.2697508
0.26976295
0.26974523
0.26969756
0.26961986
0.26951205
0.2693741
0.26920602
0.26900782
0.26877956
0.26852129
0.26823313
0.26791518
0.26756761
0.26719058
0.26678429
0.26634896
0.26588483
0.26539218
0.26487129
0.29063681
0.29082846
0.29097889
0.29108776
0.29115479
0.29117972
0.29116235
0.29110252
0.2910001
0.29085504
0.29066729
0.29043689
0.29016388
0.28984838
0.28949054
0.28909055
0.28864865
0.28816513
0.28764032
0.28707458
0.28646833
0.28582202
0.28513613
0.31514084
0.31546555
0.31573277
0.31594191
0.31609245
0.31618395
0.31621602
0.31618837
0.31610076
0.31595306
0.31574519
0.31547715
0.31514903
0.31476098
0.31431324
0.31380613
0.31324004
0.31261542
0.31193282
0.31119286
0.31039621
0.30954362
0.30863591
0.34307949
0.34359459
0.34403025
0.34438544
0.34465925
0.34485089
0.34495969
0.34498511
0.34492672
0.34478425
0.34455753
0.34424655
0.34385139
0.34337231
0.34280967
0.34216398
0.34143586
0.34062606
0.33973548
0.33876511
0.33771608
0.33658962
0.33538708
0.37440718
0.37518855
0.37586137
0.37642391
0.37687459
0.37721206
0.37743516
0.37754291
0.37753459
0.37740965
0.37716781
0.37680896
0.37633322
0.37574096
0.37503275
0.37420938
0.37327186
0.37222142
0.37105947
0.36978765
0.36840778
0.36692189
0.36533216
0.40898511
0.41013054
0.41112959
0.41197935
0.41267721
0.41322087
0.41360836
0.41383805
0.41390864
0.4138192
0.41356917
0.41315832
0.4125868
0.41185513
0.4109642
0.40991524
0.40870986
0.40735001
0.40583796
0.40417634
0.40236808
0.4004164
0.39832482
0.44655709
0.44818888
0.44962612
0.45086409
0.45189851
0.45272564
0.45334221
0.45374549
0.45393333
0.45390412
0.45365686
0.45319113
0.45250705
0.45160538
0.45048748
0.44915527
0.44761124
0.44585847
0.44390055
0.4417416
0.43938627
0.43683963
0.43410723
0.48673686
0.48900295
0.49101458
0.49276427
0.49424524
0.49545148
0.49637776
0.49701966
0.49737365
0.4974371
0.4972083
0.49668645
0.49587167
0.49476504
0.49336858
0.49168523
0.48971884
0.48747414
0.4849567
0.48217292
0.47912994
0.47583566
0.47229863
0.5290069
0.53207984
0.53482564
0.53723277
0.53929078
0.54099029
0.54232312
0.54328237
0.54386243
0.54405908
0.54386955
0.54329245
0.54232782
0.5409772
0.53924356
0.53713132
0.53464629
0.5317956
0.52858773
0.52503236
0.52114032
0.51692355
0.51239495
0.57273039
0.57680337
0.58046334
0.58369309
0.58647686
0.58880052
0.59065166
0.59201973
0.59289615
0.59327435
0.59315003
0.59252089
0.5913868
0.58974991
0.58761455
0.58498719
0.58187638
0.57829273
0.57424874
0.56975876
0.56483883
0.55950655
0.5537809
0.61717762
0.62245726
0.62722526
0.63145659
0.63512829
0.63821961
0.64071231
0.64259079
0.64384228
0.64445697
0.6444283
0.64375274
0.64242984
0.64046256
0.63785704
0.63462254
0.6307714
0.6263189
0.62128312
0.61568475
0.60954689
0.60289486
0.59575589
0.66156563
0.66826173
0.67433604
0.67975331
0.68448099
0.68848963
0.69175318
0.6942493
0.69595962
0.69686993
0.69697066
0.6962565
0.69472661
0.69238492
0.68923993
0.68530459
0.6805962
0.67513622
0.66895005
0.66206674
0.6545187
0.64634131
0.63757259
0.70510691
0.71341993
0.72099163
0.72777379
0.73372175
0.73879491
0.74295726
0.74617783
0.74843103
0.74969701
0.74996223
0.74921913
0.74746622
0.74470868
0.74095793
0.73623159
0.73055324
0.72395219
0.71646311
0.70812567
0.698984
0.68908623
0.67848393
0.74706064
0.75716834
0.76640856
0.77471732
0.78203513
0.78830779
0.79348705
0.79753133
0.80040617
0.80208473
0.80254856
0.80178726
0.79979854
0.79658898
0.79217358
0.78657558
0.77982621
0.77196433
0.76303593
0.75309357
0.7421957
0.73040593
0.71779226
0.78677912
0.79882406
0.80987188
0.81984013
0.82865192
0.83623703
0.84253285
0.84748525
0.85104935
0.85319003
0.85388304
0.8531146
0.85088142
0.84719165
0.84206443
0.83552953
0.82762711
0.81840717
0.80792896
0.79626012
0.78347586
0.76965792
0.7548935
0.8237429
0.8378225
0.85077508
0.8624973
0.87289263
0.88187272
0.88935871
0.89528236
0.89958697
0.90222814
0.903175
0.90240995
0.89992852
0.89574056
0.88986978
0.88235324
0.87324106
0.86259575
0.85049139
0.83701266
0.82225365
0.80631654
0.78931019
0.85758038
0.87374075
0.8886469
0.90217274
0.91420031
0.92462157
0.93334001
0.94027208
0.94534832
0.94851425
0.9497319
0.94897949
0.94625124
0.94155878
0.93493066
0.9264117
0.9160627
0.9039596
0.89019255
0.87486462
0.85809041
0.83999437
0.82070896
0.88807181
0.90630595
0.92316397
0.93849578
0.95216088
0.96403058
0.9739899
0.98193935
0.98779623
0.99149565
0.99299223
0.9922599
0.98929149
0.98410036
0.97672001
0.9672032
0.9556217
0.94206534
0.92664092
0.90947075
0.8906909
0.87044923
0.84890309
0.91513672
0.93538674
0.95414612
0.97124025
0.98650572
0.99979287
1.0109682
1.019916
1.0265406
1.0307666
1.0325413
1.0318344
1.0286372
1.0229649
1.0148557
1.0043702
0.99159094
0.9766217
0.95958592
0.94062525
0.91989753
0.89757444
0.87383877
0.93882077
0.96098433
0.98155158
1.0003236
1.0171145
1.0317539
1.0440903
1.0539925
1.0613519
1.0660833
1.0681271
1.0674488
1.0640385
1.0579126
1.0491141
1.0377108
1.0237957
1.0074857
0.98892058
0.9682607
0.94568528
0.9213895
0.89558137
0.21166969
0.2141682
0.22281586
0.23351196
0.24734186
0.26432249
0.28441119
0.30767396
0.33410991
0.36364095
0.39609713
0.43119503
0.46852802
0.50756832
0.54768216
0.58815893
0.62825277
0.66723149
0.70442618
0.73927407
0.77134857
0.80037266
0.82621686
0.84888138
0.86847813
0.21145774
0.21123883
0.2110133
0.21078128
0.2105428
0.21029788
0.21004656
0.20978887
0.20952486
0.20925456
0.20897802
0.20869529
0.20840643
0.20811148
0.2078105
0.20750356
0.2071907
0.20687201
0.20654753
0.20621733
0.2058815
0.20554009
0.20519319
0.20484087
0.20448321
0.2139515
0.21372728
0.21349527
0.21325541
0.2130078
0.21275252
0.21248967
0.21221931
0.21194154
0.21165646
0.21136413
0.21106466
0.21075814
0.21044466
0.2101243
0.20979717
0.20946335
0.20912296
0.20877608
0.2084228
0.20806325
0.20769751
0.20732568
0.20694786
0.20656417
0.22254193
0.22225757
0.22196282
0.2216578
0.22134257
0.22101722
0.22068185
0.22033656
0.21998143
0.21961659
0.21924212
0.21885815
0.21846479
0.21806215
0.21765035
0.21722951
0.21679977
0.21636124
0.21591406
0.21545836
0.21499428
0.21452195
0.21404151
0.21355311
0.21305688
0.23317149
0.23281702
0.23244869
0.23206664
0.23167101
0.23126197
0.23083968
0.2304043
0.22995601
0.229495
0.22902145
0.22853556
0.22803753
0.22752755
0.22700584
0.22647262
0.22592811
0.22537252
0.22480609
0.22422905
0.22364163
0.22304407
0.22243662
0.22181953
0.22119305
0.24690302
0.24644471
0.24596715
0.24547057
0.24495524
0.24442139
0.24386932
0.24329929
0.2427116
0.24210656
0.24148447
0.24084566
0.24019045
0.23951918
0.23883219
0.23812984
0.23741248
0.23668047
0.23593419
0.235174
0.2344003
0.23361345
0.23281385
0.23200189
0.23117798
0.2637461
0.26314249
0.26251203
0.26185513
0.2611722
0.26046368
0.25973003
0.25897171
0.25818922
0.25738306
0.25655374
0.25570181
0.2548278
0.25393227
0.2530158
0.25207895
0.25112231
0.25014648
0.24915206
0.24813966
0.24710989
0.24606337
0.24500072
0.24392257
0.24282956
0.28364778
0.2828465
0.28200797
0.28113288
0.28022191
0.27927582
0.27829535
0.27728129
0.27623445
0.27515569
0.27404584
0.2729058
0.27173645
0.27053872
0.26931353
0.26806183
0.26678457
0.26548271
0.26415723
0.2628091
0.26143931
0.26004884
0.25863868
0.25720982
0.25576325
0.30665871
0.30559118
0.30447241
0.30330352
0.30208568
0.30082009
0.29950802
0.29815076
0.29674965
0.29530607
0.29382141
0.29229712
0.29073463
0.28913545
0.28750105
0.28583296
0.2841327
0.2824018
0.28064179
0.27885423
0.27704065
0.27520258
0.27334155
0.2714591
0.26955675
0.33275967
0.33133801
0.32984666
0.32828747
0.32666232
0.32497321
0.32322218
0.32141134
0.31954285
0.31761892
0.31564181
0.31361381
0.31153724
0.30941445
0.3072478
0.30503965
0.3027924
0.30050841
0.29819008
0.29583975
0.29345979
0.29105253
0.28862026
0.28616528
0.28368984
0.3618508
0.35996437
0.3579845
0.35591413
0.35375633
0.35151428
0.34919126
0.34679062
0.34431581
0.34177031
0.33915768
0.3364815
0.33374538
0.33095297
0.32810788
0.32521377
0.32227426
0.31929293
0.31627336
0.31321908
0.31013357
0.30702025
0.30388249
0.30072359
0.29754678
0.39373737
0.39124981
0.38863894
0.38590944
0.38306615
0.38011409
0.37705838
0.37390427
0.3706571
0.36732227
0.36390523
0.36041146
0.35684645
0.35321568
0.34952459
0.34577861
0.34198308
0.33814328
0.33426441
0.33035154
0.32640968
0.32244366
0.31845822
0.31445797
0.31044733
0.42810936
0.4248569
0.42144466
0.41787989
0.4141701
0.41032299
0.40634644
0.40224843
0.39803706
0.39372046
0.38930679
0.3848042
0.3802208
0.3755646
0.37084356
0.36606546
0.36123797
0.35636857
0.35146455
0.34653299
0.34158076
0.33661447
0.33164052
0.32666502
0.32169382
0.46453355
0.46032545
0.45591439
0.45131139
0.44652778
0.44157515
0.43646524
0.43120995
0.42582118
0.42031088
0.41469092
0.40897306
0.40316891
0.39728987
0.39134711
0.3853515
0.37931363
0.37324372
0.36715162
0.36104681
0.35493836
0.34883492
0.34274469
0.33667547
0.33063456
0.50245825
0.49708001
0.49144946
0.48558291
0.47949707
0.47320887
0.46673541
0.46009385
0.4533013
0.44637473
0.43933091
0.43218631
0.424957
0.41765867
0.41030649
0.40291508
0.39549852
0.38807024
0.38064303
0.37322903
0.36583969
0.35848576
0.35117732
0.34392375
0.33673368
0.54123163
0.53445157
0.52736494
0.51999527
0.51236647
0.50450267
0.49642803
0.48816664
0.47974232
0.4711785
0.4624981
0.45372344
0.44487608
0.43597681
0.42704552
0.41810115
0.40916169
0.40024406
0.39136417
0.38253685
0.37377587
0.36509394
0.35650273
0.34801287
0.33963395
0.58013434
0.57171363
0.56292918
0.55381398
0.54440135
0.53472466
0.52481711
0.51471151
0.50444003
0.49403401
0.48352382
0.47293868
0.46230656
0.45165402
0.44100618
0.43038665
0.41981745
0.40931904
0.39891027
0.3886084
0.37842912
0.36838662
0.35849358
0.34876126
0.33919947
0.6184239
0.60812941
0.59741371
0.58632175
0.57489866
0.56318931
0.55123799
0.53908806
0.52678167
0.51435948
0.50186042
0.48932152
0.47677776
0.46426193
0.45180457
0.4394339
0.42717582
0.4150539
0.40308944
0.39130146
0.37970686
0.36832042
0.35715495
0.34622138
0.33552877
0.65538552
0.64300427
0.63014693
0.61687311
0.6032422
0.58931286
0.57514247
0.56078673
0.54629922
0.53173104
0.51713058
0.50254324
0.4880113
0.4735738
0.45926646
0.44512169
0.43116864
0.41743321
0.4039382
0.39070342
0.37774581
0.36507964
0.35271665
0.34066627
0.32893561
0.69038186
0.67573526
0.66056319
0.64494253
0.62894935
0.61265823
0.5961415
0.57946868
0.56270592
0.54591563
0.52915608
0.51248121
0.49594045
0.47957862
0.46343599
0.44754828
0.43194681
0.41665868
0.40170691
0.38711076
0.37288587
0.35904464
0.34559639
0.33254772
0.31990261
0.7228942
0.70585033
0.68823953
0.67015838
0.65170182
0.63296218
0.61402825
0.59498449
0.5759104
0.55688003
0.53796157
0.51921716
0.50070273
0.48246807
0.46455685
0.44700686
0.42985024
0.41311377
0.39681926
0.38098387
0.36562049
0.35073818
0.33634252
0.32243599
0.30901825
0.75254918
0.7330314
0.71291486
0.6923179
0.67135612
0.65014102
0.6287789
0.60736984
0.58600695
0.5647758
0.54375405
0.52301124
0.50260881
0.4826002
0.46303112
0.44393988
0.42535785
0.40730995
0.38981513
0.37288697
0.35653416
0.34076111
0.32556842
0.31095335
0.29691026
0.77912794
0.75711906
0.73449
0.71138244
0.68793386
0.66427591
0.64053292
0.61682074
0.59324587
0.56990483
0.54688385
0.52425874
0.50209508
0.48044846
0.45936503
0.43888201
0.41902839
0.39982562
0.38128836
0.36342522
0.34623946
0.32972971
0.31389062
0.29871344
0.28418653
0.80255932
0.77810095
0.75301126
0.72745621
0.70159591
0.67558244
0.64955821
0.6236545
0.59799052
0.57267278
0.54779487
0.52343747
0.49966876
0.47654493
0.45411093
0.43240135
0.41144129
0.3912474
0.37182878
0.35318798
0.3353219
0.31822261
0.30187816
0.28627333
0.27139011
0.82289805
0.79608608
0.768641
0.74075337
0.71260594
0.68437109
0.65620876
0.6282649
0.60067037
0.57354045
0.54697466
0.52105707
0.49585692
0.47142947
0.44781706
0.42505026
0.40314912
0.38212437
0.3619787
0.34270787
0.32430181
0.30674564
0.29002055
0.27410466
0.25897356
0.84030243
0.81127827
0.78162699
0.75156344
0.7212925
0.6910061
0.6608808
0.63107606
0.60173317
0.57297473
0.54490477
0.5176093
0.49115723
0.46560157
0.44098088
0.4173207
0.39463514
0.37292838
0.35219615
0.33242705
0.31360388
0.29570471
0.27870392
0.26257312
0.24728173
0.20412022
0.20371749
0.20323334
0.20265341
0.20196061
0.20113466
0.20015155
0.198983
0.19759596
0.19595218
0.1940081
0.19171524
0.18902126
0.18587233
0.18221682
0.1780121
0.17323358
0.16788668
0.16202372
0.15576242
0.14930555
0.14296029
0.13716624
0.13250602
0.12971169
0.20617483
0.20574324
0.20522438
0.20460254
0.20385903
0.20297169
0.20191417
0.20065534
0.1991588
0.19738253
0.19527896
0.19279567
0.18987702
0.18646732
0.18251581
0.17798219
0.1728521
0.16714427
0.16092881
0.1543451
0.14761927
0.14107797
0.13515489
0.13041772
0.12759098
0.2125529
0.21199346
0.21132072
0.21051503
0.20955338
0.20840894
0.20705067
0.20544282
0.20354461
0.20131002
0.19868807
0.19562385
0.19206089
0.18794525
0.18323246
0.17789654
0.17194033
0.16541405
0.15842446
0.15115176
0.14385788
0.1368955
0.13070661
0.12583463
0.12295908
0.22055744
0.21985276
0.21900609
0.21799253
0.21678274
0.21534236
0.21363144
0.21160417
0.20920898
0.2063892
0.20308467
0.19923451
0.19478146
0.18967813
0.18389556
0.17743568
0.17034008
0.16270765
0.15470113
0.1465552
0.13857488
0.13113217
0.12466227
0.11966905
0.11676665
0.23034249
0.22941682
0.2283057
0.22697749
0.22539537
0.22351674
0.22129282
0.21866851
0.2155828
0.21197014
0.20776328
0.2028979
0.19731968
0.19099378
0.18391623
0.17612773
0.16772507
0.15886953
0.14979135
0.14078167
0.13218234
0.12436839
0.11773932
0.11273026
0.10986738
0.24172229
0.24049677
0.23902765
0.23727438
0.23519026
0.2327221
0.22981018
0.22638884
0.22238792
0.21773563
0.21236321
0.20621191
0.19924266
0.19144831
0.18286723
0.17359617
0.16380109
0.15371575
0.1436377
0.13390492
0.12487389
0.11689376
0.11029838
0.10542513
0.10268838
0.25429994
0.25268282
0.25074786
0.24844391
0.24571282
0.24248953
0.23870257
0.23427574
0.22913119
0.22319442
0.21640176
0.20871055
0.20011181
0.19064446
0.18040929
0.16957825
0.15839816
0.14717888
0.13627465
0.12604801
0.11683868
0.10893737
0.10258503
0.098000666
0.095473428
0.26763595
0.26551736
0.26298834
0.25998572
0.25643901
0.25227106
0.24739971
0.24174099
0.23521429
0.22775016
0.21930098