/*--------------------------------*- C++ -*----------------------------------*\
  =========                 |
  \\      /  F ield         | OpenFOAM: The Open Source CFD Toolbox
   \\    /   O peration     | Website:  https://openfoam.org
    \\  /    A nd           | Version:  8
     \\/     M anipulation  |
\*---------------------------------------------------------------------------*/
FoamFile
{
    version     2.0;
    format      ascii;
    class       volVectorField;
    location    "0.750";
    object      ddtCorrDdt0(U);
}
// * * * * * * * * * * * * * * * * * * * * * * * * * * * * * * * * * * * * * //

dimensions      [0 1 -2 0 0 0 0];

internalField   nonuniform List<vector> 
16200
(
(-7.7141 -2.20189 1.3259e-19)
(-5.0886 -9.54581 3.76665e-18)
(-6.17793 -8.26622 0)
(-1.88542 -17.0036 -4.34294e-18)
(-7.88059 1.1879 -1.4462e-18)
(-7.04029 -5.35741 0)
(-2.11948 -10.1671 -4.55217e-18)
(0.643097 -18.8967 0)
(-0.526067 -7.93235 -2.79794e-19)
(0.782002 -21.2814 6.56043e-18)
(-5.05642 0.35438 1.01681e-18)
(2.40871 -14.7342 -1.49471e-19)
(0.856797 -23.379 3.39288e-17)
(1.76971 -23.8284 0)
(-2.81344 -0.283693 -7.53743e-20)
(2.89834 -21.403 0)
(3.41832 -16.7243 1.20627e-18)
(0.337341 -7.39827 8.12753e-20)
(-5.90091 1.48885 0)
(3.09295 -16.9933 0)
(2.62118 -13.835 -1.048e-18)
(-2.62091 0.88966 0)
(-8.50096 5.0501 6.36934e-19)
(6.07878 -8.25439 1.0597e-18)
(1.65995 -17.04 1.99562e-18)
(2.08672 -6.3219 -4.75254e-19)
(0.671441 -21.222 2.63524e-18)
(3.02561 -16.6399 1.36366e-18)
(3.9968 -5.142 -7.08003e-19)
(0.140158 -19.7384 -1.00369e-17)
(1.44872 -18.5574 0)
(0.333385 0.150653 1.48299e-19)
(-0.168261 -17.8144 -3.34101e-18)
(7.29688 -4.66927 9.97967e-20)
(-0.559254 -16.8853 -5.79427e-18)
(6.64815 -6.42332 -2.13994e-19)
(7.74804 -4.83988 0)
(7.13359 -5.8515 0)
(8.09983 0.731823 1.0664e-19)
(7.33011 -4.33367 0)
(1.93251 -6.47123 1.24468e-18)
(-0.437181 -16.831 -2.25759e-19)
(6.45928 -5.50245 0)
(6.91761 0.468479 0)
(-0.326776 -11.6094 -3.23644e-18)
(6.12419 -3.16387 5.04076e-19)
(4.50537 -0.477262 0)
(-1.11936 -14.6165 0)
(4.3647 -2.08191 1.75009e-19)
(-8.36272 0.76868 -6.56481e-19)
(-1.65029 -15.6988 4.32703e-18)
(-8.33351 3.94573 1.09635e-20)
(-5.84174 3.17344 2.49013e-20)
(-3.63495 -8.49503 -3.53101e-18)
(-1.59536 -13.0459 0)
(-7.51015 2.85615 6.25736e-19)
(-7.6975 -1.55859 -9.85502e-19)
(2.11386 -1.22886 1.18434e-18)
(-1.26766 -11.0632 -1.71239e-17)
(-2.27469 -15.0854 -4.21386e-20)
(-3.63272 -3.45076 -2.5636e-18)
(1.94342 -11.7098 0)
(-8.22533 1.02222 -9.46469e-19)
(-1.90692 -12.5099 0)
(0.0833531 -9.52749 5.28882e-18)
(-0.28242 -9.34645 -5.9166e-19)
(0.821961 -16.08 5.89072e-18)
(-1.88144 -6.37365 2.80367e-18)
(1.07482 -13.0889 1.70196e-17)
(-1.50993 0.0498773 -1.86901e-25)
(4.69907 -12.9247 0)
(4.48245 -17.3252 0)
(-3.96324 0.949801 -4.77226e-19)
(-6.0182 -3.14025 -4.28796e-18)
(-4.33114 0.743739 6.81592e-19)
(3.71873 -18.0965 -7.57866e-19)
(2.66699 0.322359 1.55027e-20)
(5.5705 -12.6212 0)
(1.12687 0.12893 2.3791e-20)
(1.85668 -3.11993 0)
(-4.01471 -7.98457 2.95504e-18)
(-3.17843 -12.4773 0)
(0.703921 -5.18528 2.92339e-20)
(-3.60904 -0.665185 5.36463e-20)
(-5.40699 -9.44309 -2.13147e-18)
(3.87417 -8.75749 -1.7073e-18)
(1.58066 -0.352501 0)
(-3.14638 -13.1361 -1.62974e-20)
(-2.5626 -10.4419 0)
(2.55162 -1.45558 1.56792e-18)
(-0.410663 -4.70869 -1.45823e-19)
(6.23847 -10.2502 2.91028e-19)
(-2.87759 -10.3119 3.98099e-18)
(5.64819 -2.12699 1.1952e-18)
(-1.11305 -0.0491528 -3.39004e-18)
(-2.80402 -12.0517 -8.13988e-18)
(-2.08911 -8.15031 -4.48746e-18)
(-1.55348 -2.31278 -1.09255e-19)
(-4.24791 -3.49694 0)
(0.344159 -0.811445 -9.48752e-20)
(-7.51539 -8.2297 2.42251e-18)
(1.28633 4.6725 2.09979e-18)
(0.434881 -0.168882 4.36381e-20)
(0.755345 -0.0920269 0)
(7.20363 -5.44435 2.15027e-19)
(-0.550853 -5.31828 0)
(1.05262 6.65569 3.31467e-20)
(-2.28724 -1.15807 1.85494e-19)
(5.26934 1.65737 -4.13607e-19)
(-1.9767 -2.94447 -3.1762e-19)
(-1.50134 1.07377 2.05771e-18)
(2.83333 1.39574 3.87617e-18)
(-4.08258 1.519 -2.14738e-18)
(-0.36443 -0.983269 0)
(-8.12493 -4.82245 0)
(-0.119284 -0.325484 1.6287e-18)
(1.1419 11.3834 3.25826e-18)
(1.47771 14.3091 0)
(2.1675 -4.72749 -7.02699e-18)
(7.04653 -1.11321 0)
(5.10916 5.86702 -1.37778e-19)
(-0.606599 -1.32709 0)
(0.474611 10.5237 1.1285e-18)
(0.398131 -2.96281 2.90043e-18)
(2.76768 7.31564 2.64726e-18)
(-1.51747 -1.17148 0)
(-4.31936 6.8643 1.58048e-18)
(-8.09601 -1.04362 4.97454e-18)
(-0.837567 -0.413027 3.07471e-20)
(1.09165 15.7117 -1.14739e-18)
(1.39229 18.919 1.24341e-20)
(3.79955 9.96117 0)
(4.36586 -3.40487 0)
(6.82941 2.66072 -1.37375e-18)
(0.903956 -1.2628 2.65451e-18)
(1.11871 16.5867 8.49146e-19)
(2.34526 -2.47561 0)
(1.53482 13.5813 -1.89734e-18)
(-2.72717 15.4932 -8.5888e-19)
(-3.22947 -1.49184 2.18716e-18)
(-7.45559 3.68181 0)
(-0.325807 17.2386 1.08126e-18)
(-1.6892 -0.454949 -2.1325e-18)
(5.91695 5.80909 9.22554e-21)
(-0.82097 21.3175 -2.00406e-18)
(5.83155 -1.53469 -2.85112e-18)
(0.942736 13.2333 -5.91693e-23)
(2.16443 -0.932691 -2.64017e-18)
(0.738573 22.7753 -9.84411e-21)
(0.319315 15.666 7.48186e-19)
(3.72996 -1.45035 0)
(-1.04954 21.5886 -1.24273e-17)
(-6.06854 7.42765 6.28922e-18)
(-4.92845 -1.30617 2.3613e-18)
(-1.84145 17.6509 8.07283e-19)
(-2.58908 -0.33163 2.36158e-18)
(2.842 -0.503779 -2.35566e-18)
(6.05513 0.356912 3.42133e-20)
(-1.05487 13.5462 -8.16255e-19)
(4.46697 7.59131 -3.28141e-21)
(-2.1658 18.2 1.31505e-18)
(-1.07541 16.3767 -9.91638e-19)
(4.32963 -0.345971 2.29001e-18)
(-1.17118 21.6295 4.98017e-21)
(1.40725 21.5876 0)
(-3.63692 11.0051 0)
(-5.64015 -0.268856 -1.96482e-20)
(-3.36042 -0.223217 0)
(-3.01217 15.6171 7.79417e-19)
(3.00963 -0.0185123 -4.27462e-18)
(5.30927 1.80286 1.9157e-18)
(-2.10315 11.6099 1.97587e-18)
(1.80249 8.20167 -3.32119e-19)
(-2.80131 13.6818 -4.03857e-19)
(4.10479 0.618274 -2.09049e-18)
(-1.36961 14.8232 8.52437e-19)
(-2.58779 16.1373 3.21336e-19)
(3.22875 14.1701 3.36484e-19)
(-0.0468466 12.145 -1.33522e-18)
(-5.14791 0.891373 -2.59298e-18)
(-2.77747 10.3442 4.35037e-19)
(-3.77831 0.0611189 -2.68325e-18)
(-1.34535 9.0804 0)
(3.92548 2.52337 -1.53577e-18)
(-1.12876 6.02081 9.23026e-19)
(2.64137 0.404699 -3.61963e-21)
(-4.01788 12.1628 2.2417e-19)
(-3.19773 12.9773 2.34965e-23)
(3.29645 1.29989 -1.59703e-18)
(-0.741934 7.67301 -9.2921e-19)
(-3.77989 2.20378 2.51838e-18)
(4.21684 6.20494 -1.88707e-18)
(3.73869 10.2479 0)
(-3.32796 0.604793 2.81323e-18)
(-1.81023 6.26032 -2.9293e-19)
(-0.0467152 1.5775 -4.7116e-23)
(-4.20104 9.45687 0)
(-4.59686 8.85105 -2.41932e-19)
(2.30784 2.74349 1.0856e-18)
(1.92556 0.687382 -1.5063e-18)
(0.579832 2.43931 0)
(-2.97912 8.93473 1.06591e-19)
(2.27551 1.47803 1.31367e-18)
(4.53086 0.591809 -2.01498e-18)
(6.73839 6.56246 -3.53893e-18)
(-1.62405 2.94845 -1.9443e-18)
(-0.856675 1.53149 2.45867e-19)
(-2.08422 1.02248 0)
(-6.17075 8.28175 0)
(-5.01292 5.21531 3.79692e-19)
(2.22857 -1.67667 1.6288e-18)
(0.894699 2.62657 -2.31968e-22)
(1.14454 0.813975 1.38211e-18)
(-2.24371 4.73015 0)
(2.34312 -1.67095 0)
(1.12998 1.60122 0)
(4.86616 -3.50544 -2.00408e-18)
(8.48245 2.30793 9.59394e-23)
(0.829339 2.73344 0)
(-0.397933 1.05715 -5.00312e-20)
(0.137716 -1.18003 2.38218e-19)
(0.285511 0.840215 0)
(-5.28437 0.808301 4.90027e-19)
(3.00858 -7.498 -1.52045e-18)
(-0.47014 2.54552 0)
(-7.07258 5.57175 4.68907e-19)
(3.96841 -4.94232 -1.22944e-18)
(0.0214432 1.62813 0)
(-1.72317 0.714096 0)
(5.75405 -6.44179 1.96478e-18)
(9.02188 -1.86219 -8.41133e-23)
(3.33239 1.88992 -2.73377e-18)
(2.05432 -11.5736 1.77515e-19)
(1.30159 0.725931 3.59355e-18)
(-7.64439 2.00219 0)
(-2.3255 2.82149 0)
(2.59362 -14.2282 6.44669e-19)
(-6.37742 -4.71528 5.49385e-19)
(-0.64346 0.801212 0)
(-0.980489 1.50252 0)
(-1.28039 -4.14964 0)
(3.60359 -10.2242 -2.3586e-18)
(5.59908 -7.32314 2.00321e-18)
(4.71805 0.642598 2.95523e-18)
(8.27342 -4.60333 0)
(1.79461 -19.0325 0)
(2.58503 0.260585 -1.16913e-23)
(-8.07364 -2.78162 -1.66148e-23)
(-1.45384 0.699228 8.24858e-19)
(0.738762 -18.2346 -9.53913e-19)
(-4.36227 2.80558 0)
(-5.48062 -12.6002 -3.26461e-23)
(2.03619 -15.3853 2.07481e-18)
(0.219931 -15.3921 -6.9833e-19)
(-2.15506 1.48884 6.69217e-19)
(5.04464 -0.26273 2.18927e-23)
(2.59457 -10.9609 -2.2774e-18)
(6.48331 -4.83786 -2.41646e-18)
(3.25863 -0.131697 0)
(0.0103192 -25.0658 2.36136e-19)
(-2.18817 0.569464 0)
(-1.27718 -20.7862 -1.08617e-18)
(-6.92737 -7.47389 0)
(-5.99835 2.01747 0)
(-3.20008 -21.3542 -2.54293e-19)
(0.123095 -23.357 -3.06799e-19)
(-0.579889 -17.4785 -1.76392e-18)
(-3.46465 1.28145 -1.244e-18)
(-0.101586 -13.2397 2.97055e-18)
(5.24497 -3.76373 0)
(4.56863 -0.745595 0)
(-2.50701 -23.9181 -9.71544e-20)
(3.32299 -0.297668 7.1217e-20)
(-4.26769 -19.8021 -4.60179e-19)
(0.238902 -24.0772 -1.70095e-19)
(-2.78356 0.399505 0)
(-4.78771 -11.412 -2.77035e-19)
(-6.74005 0.444756 0)
(-3.11738 -18.6433 9.9314e-19)
(-0.875286 -27.4487 2.67019e-19)
(-4.43678 0.696145 -5.64509e-19)
(-2.76 -14.4576 3.13504e-18)
(3.73785 -0.9433 0)
(3.79075 -3.72915 2.3972e-18)
(2.99227 -0.355123 0)
(-2.82819 -15.6441 2.09479e-19)
(3.71554 -18.7451 -4.61953e-19)
(-0.913678 -13.9184 2.00524e-19)
(-3.09442 0.103635 -5.54828e-19)
(-6.23386 -1.62463 -9.91057e-19)
(-4.47019 -13.2163 -9.13742e-19)
(-1.22123 -20.3441 7.62908e-19)
(-4.67324 -0.24574 5.38243e-19)
(-4.79856 -16.3732 1.4342e-19)
(-4.8967 -13.9988 -2.4644e-18)
(0.212088 -5.89139 2.35354e-18)
(2.87132 -0.98894 0)
(-2.11009 -8.20216 1.06338e-18)
(2.4441 -0.352897 2.53082e-18)
(-3.36839 -8.34024 -2.24029e-18)
(5.61252 -9.59469 -8.56089e-19)
(-2.94117 -0.314883 3.93559e-24)
(-4.54334 -3.56569 0)
(3.52929 -13.6575 0)
(-4.64605 -11.3289 1.2865e-18)
(-3.95276 -1.46101 -7.18449e-24)
(-0.795048 -10.8096 -9.32636e-19)
(-6.03214 -11.622 0)
(-3.12577 -7.97345 0)
(2.07898 -0.95848 -2.42857e-18)
(1.82942 -0.297719 1.87338e-23)
(-0.416267 -3.14091 0)
(-2.13822 -0.926255 -4.27703e-19)
(6.96209 -10.4006 -3.92729e-19)
(-1.89104 -4.78605 -1.02413e-23)
(6.06674 -2.52698 1.19897e-22)
(-1.6223 -3.40461 0)
(-2.32352 -2.38416 -6.28101e-24)
(0.643511 -3.91112 1.08797e-18)
(-3.88331 -7.22902 -2.55252e-18)
(1.26349 -1.00905 0)
(-5.97692 -8.28858 0)
(-6.35453 -7.98743 -1.10736e-19)
(1.22443 -0.270933 2.39651e-18)
(1.22229 0.784952 -3.78588e-18)
(-0.900358 -1.20731 -3.83145e-19)
(-1.11962 -0.475571 -1.24315e-18)
(8.30232 -5.23588 0)
(6.02525 2.32379 -9.02322e-19)
(1.13917 -5.00504 2.14935e-19)
(-2.42347 -2.72151 -1.23382e-18)
(1.94694 0.305582 -1.48186e-22)
(-0.088391 -2.8309 -3.23209e-19)
(0.424712 -1.10585 -2.2809e-18)
(-6.48879 -3.8915 0)
(-7.94236 -7.10961 1.92219e-18)
(0.608249 -0.26719 1.75648e-23)
(3.63894 5.93025 0)
(6.59852 6.85626 9.39028e-19)
(8.6288 0.0551195 -9.87432e-24)
(1.88335 7.61558 -3.24119e-20)
(4.05785 -4.29962 -3.25327e-19)
(0.588031 -1.2879 0)
(4.18884 4.85702 -1.292e-18)
(-2.78449 1.10481 -1.18035e-18)
(1.98571 -2.73185 -3.0492e-19)
(-6.36255 1.94866 0)
(-9.20789 -4.80293 -1.83165e-18)
(-0.521065 -1.12292 6.67052e-23)
(3.82586 13.3477 -3.16384e-18)
(-0.0255135 -0.359719 0)
(3.00166 17.7729 -1.33607e-18)
(2.00529 -1.1227 -3.66091e-19)
(6.93788 8.29291 -1.11617e-18)
(6.32596 -2.68378 -1.91417e-19)
(8.74064 4.69851 0)
(-0.262751 11.7321 1.2392e-18)
(5.06409 9.18017 1.46639e-18)
(3.74301 -2.03802 2.95169e-19)
(-1.94679 -1.35937 -2.11275e-18)
(-6.92824 7.71835 1.29866e-18)
(-9.5051 -1.08935 1.63923e-18)
(-0.743443 -0.420202 -2.11567e-18)
(3.03111 20.0849 5.28526e-18)
(7.94346 7.68563 3.86771e-23)
(3.07366 -0.7582 -4.44364e-19)
(2.93715 26.0927 -1.62877e-18)
(4.79252 11.285 1.71908e-18)
(7.45166 -0.506329 -3.08987e-19)
(1.25899 21.7324 0)
(3.85094 15.9762 -2.2227e-22)
(4.80461 -0.885124 0)
(-4.54244 18.4683 0)
(-3.76186 -1.55643 6.04033e-23)
(-8.81089 3.43326 -1.63372e-18)
(-1.54429 -0.378327 -2.07241e-18)
(0.4574 21.7561 -3.6802e-22)
(-0.174436 27.0008 -2.93648e-18)
(6.35845 6.13412 0)
(7.11733 1.34128 6.30747e-19)
(1.2297 15.156 -3.25329e-18)
(3.50804 -0.256571 -5.93185e-19)
(1.61699 29.6693 0)
(4.9446 0.224377 5.1881e-19)
(1.73229 19.316 -2.23871e-18)
(-0.886899 25.0116 -1.58846e-18)
(-6.51066 8.02298 0)
(-5.14482 -1.07874 3.60248e-20)
(-2.51309 -0.316788 -1.94212e-18)
(-2.24034 22.4798 3.88791e-22)
(-1.31343 16.2032 -5.5971e-18)
(-1.26385 20.3364 2.54739e-18)
(3.36647 0.215423 -1.13414e-19)
(5.67743 2.25731 -9.56267e-19)
(4.46753 6.55688 -1.08974e-18)
(0.667135 25.5415 0)
(4.30198 1.06328 -8.76356e-19)
(-0.978365 20.2901 -2.76465e-18)
(-5.56916 -0.0810067 0)
(3.59551 23.0138 4.18581e-18)
(-3.62056 11.1507 -2.34078e-22)
(-3.28057 -0.220348 0)
(-3.17841 16.105 -3.98978e-18)
(0.469964 9.75135 0)
(3.96116 2.36514 1.14754e-18)
(-3.46507 15.5601 0)
(2.78316 0.529642 9.25575e-19)
(-1.3075 10.3934 0)
(-3.3687 18.6013 -2.33277e-18)
(3.35333 1.22846 0)
(0.746013 14.9179 0)
(6.87339 13.8406 -2.57573e-18)
(0.380602 12.0002 0)
(-4.95958 0.951374 1.83785e-18)
(-3.63109 0.0436019 0)
(-2.67887 9.01019 -1.91743e-18)
(2.13825 0.680533 -1.42722e-19)
(-3.24452 11.1559 0)
(-4.70033 12.6296 1.57314e-18)
(2.52163 2.38728 0)
(0.117014 3.65821 4.24037e-18)
(-3.60343 12.5892 -2.13153e-18)
(2.41294 1.3202 -1.35972e-18)
(1.47554 5.48328 2.44679e-18)
(-3.61148 2.11477 1.14473e-22)
(4.32744 9.52659 2.80138e-22)
(7.02168 4.52993 0)
(-3.2254 0.545364 -1.88206e-18)
(-1.01394 3.22223 2.99482e-18)
(1.45243 0.725953 -4.59163e-23)
(1.08863 -0.848722 1.91639e-18)
(-5.75967 10.7255 1.98022e-18)
(1.59559 2.16709 2.1364e-18)
(-4.91005 8.53882 -8.2354e-19)
(2.62739 0.756223 0)
(1.40381 1.44243 1.86801e-18)
(-2.89091 7.46227 2.25701e-19)
(7.13669 5.68879 0)
(6.84482 -0.379693 5.30883e-22)
(-1.59935 2.66759 1.95816e-18)
(0.0292611 0.194833 3.87105e-18)
(-2.08019 0.946729 1.9094e-18)
(0.665642 2.20298 2.43595e-18)
(-7.18022 8.76023 0)
(0.685186 0.754263 1.75644e-18)
(3.43292 -6.28079 0)
(-5.3249 6.48528 2.34676e-19)
(-1.11077 2.16153 -1.57983e-19)
(0.515987 1.5418 2.00947e-18)
(3.49122 -5.07306 3.51235e-18)
(0.589396 2.46909 0)
(8.76562 1.7688 0)
(6.82832 -5.39494 1.92316e-18)
(-0.514607 0.91496 1.9828e-18)
(2.75806 -7.53024 2.34164e-18)
(3.85937 -11.6177 0)
(-0.184148 0.824999 -1.76778e-18)
(-1.54102 3.37677 -2.27314e-18)
(-8.02625 5.54934 -1.28159e-22)
(4.53408 -8.93434 0)
(-5.22324 2.05191 -4.13858e-19)
(-0.232316 1.5178 1.12902e-22)
(-0.917929 -0.324395 -9.80606e-19)
(6.18951 -8.75407 1.58514e-18)
(2.88695 1.67829 1.22252e-22)
(9.1039 -2.01623 -4.51477e-22)
(1.07843 0.633302 -6.09425e-23)
(3.34481 -17.255 2.62241e-18)
(-8.64347 1.55843 3.13314e-19)
(-4.50285 4.255 1.56627e-18)
(-1.05373 0.830852 1.62296e-18)
(2.29973 -18.5227 -1.20854e-18)
(-1.60206 1.87702 1.00215e-22)
(2.05448 -11.8429 -8.75933e-20)
(-5.79868 -4.15277 1.47754e-19)
(4.04653 -13.4572 -2.40489e-18)
(4.11413 0.586718 1.92517e-18)
(4.92696 -9.97884 1.12284e-18)
(8.09214 -4.57818 1.63671e-18)
(1.7998 -25.325 2.36278e-18)
(2.20055 0.231877 1.94267e-18)
(2.92693 -22.7396 7.01981e-22)
(-6.87927 3.85494 0)
(-1.99342 0.804314 -1.36363e-18)
(-8.93131 -5.08367 -3.11488e-19)
(-3.69205 2.22609 1.4633e-18)
(-0.918205 -20.7582 1.2351e-18)
(-4.72529 -14.4263 0)
(2.03458 -11.4434 1.87725e-18)
(6.16491 -4.9875 -1.4055e-18)
(4.38635 -0.252965 1.81126e-18)
(-1.40689 -25.9771 8.79912e-20)
(0.570516 -17.3731 -6.64838e-19)
(2.77928 -0.114864 1.85602e-18)
(1.26383 -29.4602 0)
(-3.09498 0.865554 0)
(-8.26653 2.31529 7.04659e-19)
(-7.95261 -10.6893 0)
(-3.28346 -21.0052 -1.11409e-18)
(-5.52531 1.94399 -1.8637e-19)
(-2.0014 -24.9206 4.91546e-20)
(4.3565 -4.32946 0)
(-1.54792 -14.0144 0)
(-3.4442 -20.8565 1.11676e-18)
(3.93323 -0.76451 1.66527e-18)
(-2.16988 -19.2245 6.49725e-20)
(-1.6277 -25.8582 -6.03922e-18)
(2.80805 -0.287995 1.03824e-22)
(-4.10184 -16.1641 0)
(-0.168375 -26.5046 2.54975e-18)
(-8.49421 -0.11039 0)
(-4.12971 0.714511 -7.14124e-19)
(-6.53797 0.913067 1.77692e-19)
(-4.75728 -17.2692 -4.42414e-20)
(3.09936 -0.998413 0)
(-4.72694 -14.5873 0)
(2.09299 -4.54999 0)
(-2.97857 -12.1295 -3.18944e-18)
(2.46593 -0.359871 -1.58641e-18)
(-4.42941 -18.2582 0)
(-1.97347 -15.8565 0)
(1.22419 -15.564 1.80938e-18)
(1.91443 -18.3393 0)
(-7.37499 -2.86907 -5.20695e-20)
(-4.62727 0.16385 -5.4218e-19)
(-4.51061 -11.1551 7.37386e-19)
(-6.41032 -0.69506 1.68093e-19)
(-6.63697 -12.5159 -2.84454e-22)
(-1.1043 -5.63516 -9.0227e-19)
(2.18905 -1.0602 1.28661e-18)
(-1.92191 -6.57853 0)
(-5.41403 -13.8821 6.74283e-19)
(1.89531 -0.355467 -1.43782e-18)
(-0.829073 -7.77105 -1.6595e-18)
(2.82845 -5.91952 3.13174e-18)
(-4.24482 -0.656928 0)
(7.19518 -15.3995 -2.84823e-22)
(-4.73275 -5.25863 9.24964e-23)
(-5.10504 -2.35975 -1.3025e-23)
(-3.53682 -7.38863 -5.3e-19)
(-7.56498 -9.25571 4.46937e-19)
(-4.02627 -6.75976 0)
(0.561112 -2.64983 1.00863e-19)
(1.32904 -1.00499 0)
(0.553406 -2.28553 2.5237e-18)
(1.25404 -0.294626 0)
(-5.3793 -9.83428 0)
(-1.20677 -6.46056 0)
(3.97621 -0.713851 1.39443e-18)
(9.27307 -8.9314 0)
(-2.89167 -1.38876 0)
(-1.76689 -2.96989 -8.81379e-19)
(-2.67729 -3.50465 5.93706e-23)
(-2.03015 2.71689 0)
(3.06342 0.718698 -9.03803e-19)
(-1.94394 2.75667 1.2148e-18)
(0.557155 -0.923973 1.10336e-18)
(-6.67136 -6.60442 3.17918e-22)
(-8.42576 -5.81116 0)
(-5.05545 -6.17886 -4.70196e-19)
(3.28149 0.790975 -9.63179e-19)
(0.639727 -0.258629 0)
(-1.87654 2.94922 1.04976e-18)
(9.14509 -2.71625 0)
(-0.910875 -1.7325 -5.21458e-19)
(5.54938 3.6615 0)
(2.17816 -6.37258 -1.24259e-18)
(-2.22513 0.181419 0)
(0.168463 -3.85404 -8.10399e-19)
(-9.02614 -0.814627 0)
(4.78256 8.59237 0)
(-8.53671 -4.95061 1.13237e-18)
(-0.133987 -0.82676 9.40952e-19)
(-2.05937 2.64503 -2.89134e-18)
(-4.44661 -1.53959 2.64862e-19)
(5.93126 5.52445 7.81375e-20)
(0.0749696 -0.245345 -9.96414e-19)
(7.16167 7.04425 -9.90658e-19)
(-1.95549 2.61377 0)
(1.11044 -1.73377 -1.73969e-18)
(9.21763 2.08863 0)
(5.22818 -5.0951 2.99649e-22)
(-1.94259 2.5322 -5.62582e-19)
(-1.90309 2.74921 0)
(-0.32995 12.3577 4.05083e-20)
(2.78616 -3.48479 -2.52676e-22)
(-0.956126 -0.791869 -8.8326e-19)
(-9.47323 -2.18053 0)
(-8.73373 6.35196 0)
(-1.78404 2.44366 3.42204e-19)
(-1.8763 3.05717 -7.1865e-20)
(4.48499 19.793 9.66836e-19)
(-1.76609 2.53695 5.50035e-21)
(-0.454137 -0.315426 8.83782e-19)
(-6.06738 4.09035 -5.97262e-20)
(-1.88042 2.95221 9.81512e-19)
(5.96455 13.203 -6.36557e-19)
(7.54936 -2.91957 1.26486e-18)
(-1.28929 1.83473 -2.47875e-19)
(8.66757 6.43446 0)
(2.87941 -1.43519 -5.86295e-20)
(7.3569 11.7891 -7.73865e-19)
(4.9682 -2.40773 1.16823e-18)
(-1.42605 1.95262 1.72521e-18)
(-1.80173 2.70941 -6.01595e-19)
(1.2408 27.2374 0)
(1.89734 27.3699 0)
(-1.8041 3.03432 -1.35251e-18)
(-9.2217 1.58415 0)
(-8.6773 13.8877 -2.46336e-19)
(-1.34157 1.99936 7.57407e-19)
(-0.755503 1.09564 1.05727e-19)
(-2.10328 -0.936626 -7.642e-19)
(3.71882 22.4508 -6.69767e-19)
(-0.830357 1.16686 0)
(-1.00827 -0.29289 -9.73469e-23)
(-4.13963 18.4548 -7.53489e-20)
(7.49549 7.65841 0)
(4.31996 19.7607 -7.75089e-19)
(4.00668 -0.892518 -2.27973e-18)
(8.29743 -0.104923 -1.22111e-18)
(0.863785 36.743 1.2757e-18)
(-1.35717 1.81145 -9.36589e-19)
(-0.896502 1.21433 0)
(6.18889 -0.859784 -1.19403e-18)
(-0.823307 1.28992 -1.209e-18)
(-2.79951 29.7117 1.05776e-18)
(-3.3301 -0.896987 -1.5051e-22)
(-7.64074 5.6072 2.82867e-22)
(-4.64862 22.8815 0)
(-0.165681 0.251278 -6.52768e-19)
(-0.725275 1.1601 0)
(-0.749301 1.24053 0)
(0.0950128 24.984 -5.90539e-20)
(-1.30819 2.10525 9.71626e-19)
(-1.77932 3.09506 -1.38438e-18)
(-1.52495 -0.177309 0)
(-1.63127 31.8024 6.26467e-19)
(7.63619 2.13533 1.17548e-18)
(4.44471 -0.16047 -2.37701e-18)
(-0.225372 0.377561 5.72894e-19)
(-0.360286 21.1847 -8.35932e-19)
(5.44054 7.66207 -8.76878e-19)
(-0.164322 0.273187 0)
(6.16213 0.616975 4.27067e-22)
(-0.421945 0.550682 -1.6429e-18)
(-1.8063 3.13358 2.13742e-18)
(-0.357996 0.4424 0)
(-0.30149 28.6974 -1.61521e-18)
(2.21907 1.96814 0)
(1.53785 23.8806 1.82364e-21)
(-4.63165 9.10279 0)
(-4.10486 -0.350033 0)
(-4.8771 22.6207 0)
(-0.138831 0.198315 0)
(-0.163255 0.265803 -1.31118e-18)
(-1.2747 2.16466 0)
(-0.72421 1.26072 0)
(-1.99515 -0.041665 -6.25494e-19)
(-0.86461 1.16332 1.78754e-19)
(-5.68065 24.9289 1.82796e-18)
(1.45894 34.1579 9.66955e-19)
(2.14401 2.01549 9.09817e-20)
(6.07446 3.05298 1.17284e-18)
(-1.67258 2.89647 0)
(-4.10058 20.6715 0)
(-1.67708 3.17854 4.25124e-19)
(2.12877 1.87013 -2.55644e-19)
(2.10165 10.8252 0)
(2.22809 1.77143 -8.62816e-20)
(4.1093 0.493408 1.21262e-18)
(5.17037 1.62274 -1.2068e-18)
(0.0968397 14.4426 -1.79852e-18)
(-1.73237 3.1926 5.31855e-19)
(2.20528 1.99634 7.70478e-20)
(7.09281 16.7686 2.1714e-18)
(-1.6054 2.84802 -1.18028e-18)
(-0.747721 10.3986 -9.79072e-22)
(-4.52542 10.8811 -1.24481e-18)
(-1.21462 2.15437 0)
(-3.954 0.556391 0)
(-5.58965 2.60263 8.9392e-19)
(3.85947 21.3647 0)
(2.2108 1.80102 1.91386e-19)
(-5.86888 16.3319 1.02679e-18)
(-2.30715 0.0502622 1.07138e-18)
(-4.40688 2.81238 1.60769e-19)
(3.27931 0.855622 -1.25425e-18)
(-1.46038 12.386 0)
(2.13779 1.61419 -7.45954e-20)
(4.45697 2.85407 -1.19017e-18)
(-6.03639 14.9737 8.66349e-19)
(0.800024 3.90792 1.46564e-19)
(-0.672219 0.866794 -2.69696e-19)
(3.89597 1.73114 1.27111e-18)
(2.00547 1.55338 0)
(-0.139671 0.16232 -1.46914e-18)
(-0.364369 0.453191 0)
(-1.57277 1.98278 7.55615e-21)
(-1.22875 1.53651 -1.17545e-18)
(3.05421 9.31083 0)
(-1.558 2.86425 -6.68592e-19)
(-1.68153 3.19417 -1.54278e-19)
(2.01896 1.50409 0)
(-2.55924 2.91998 1.15566e-18)
(-3.01871 1.28889 -4.57041e-19)
(1.46754 1.09769 -2.01457e-19)
(9.46329 8.36677 2.33468e-18)
(-1.67799 3.30165 0)
(4.95908 7.94217 3.30145e-21)
(-0.330584 0.423266 0)
(-5.13691 8.32613 -1.00911e-18)
(-2.24656 0.290283 2.39695e-22)
(1.72039 1.34518 1.62599e-19)
(-4.36664 12.1414 0)
(2.39792 0.931112 1.38551e-18)
(3.34096 2.235 0)
(-5.75708 9.27579 2.20362e-20)
(-5.01213 2.45798 -3.96112e-19)
(2.03094 1.70022 0)
(-1.64301 2.95554 -1.08358e-18)
(2.78114 1.59187 -1.37002e-18)
(2.1245 1.52214 0)
(1.79258 -0.427395 -3.83158e-18)
(-1.61253 1.77522 0)
(1.28283 0.880052 -6.20738e-20)
(-6.0048 2.62688 0)
(9.22824 1.23228 0)
(6.27818 6.31022 6.02324e-19)
(-0.159659 0.265193 6.5005e-19)
(-2.03332 2.53518 -1.90399e-18)
(-0.835365 -0.294986 0)
(-0.340044 0.61657 -2.35927e-21)
(-1.62464 0.577215 5.18597e-19)
(-0.704565 1.27291 4.51773e-19)
(-1.5938 3.07397 -1.07309e-18)
(-6.18544 3.08675 -5.91749e-19)
(-6.2204 2.69819 0)
(4.68224 0.91644 -1.42089e-18)
(-0.196154 0.348861 -1.69255e-18)
(-2.95936 2.63355 4.85326e-20)
(-0.665832 1.247 -4.60756e-19)
(-4.67356 5.08975 -1.47028e-21)
(0.958944 0.727102 -1.42223e-19)
(-0.702462 1.39069 8.4417e-19)
(2.134 2.4439 0)
(1.5849 0.911558 -1.46183e-18)
(-6.39632 9.93538 8.26086e-19)
(1.70665 1.16037 1.13176e-19)
(1.8483 1.28488 -8.79682e-20)
(-1.57454 3.19298 -8.98669e-19)
(0.777707 0.575393 -8.24175e-20)
(1.97276 1.62961 -1.59512e-18)
(3.2163 -7.08643 2.02031e-18)
(1.75035 1.44481 0)
(8.61848 2.44769 1.21238e-21)
(8.6516 -4.37231 6.78008e-19)
(-1.16069 2.14888 -7.60531e-19)
(-5.8741 2.49381 0)
(0.785336 -0.109668 -3.09338e-19)
(0.381865 0.285195 0)
(0.206918 1.87215 -4.35213e-19)
(-1.52789 3.41581 8.26108e-19)
(-1.52839 2.99061 -1.10392e-18)
(0.896694 0.641776 2.7029e-19)
(-4.99686 2.30681 5.08871e-19)
(2.14953 1.55361 -2.12299e-19)
(2.55156 -6.29142 -1.58112e-18)
(-1.5777 3.3598 0)
(-1.50371 2.94287 -7.92514e-19)
(2.69784 -0.980361 9.07601e-19)
(1.38866 0.974631 -2.12581e-19)
(-1.48122 3.15402 -5.73799e-21)
(-1.45222 3.14282 -5.25259e-19)
(0.884381 -0.280649 0)
(3.89873 -0.348423 -6.48604e-19)
(0.181638 0.134803 -1.52559e-19)
(4.97043 -4.56084 -1.1e-18)
(-0.592471 0.578507 -6.46191e-19)
(-1.55904 3.36705 9.42709e-19)
(3.50461 -2.38529 7.37099e-19)
(0.68856 0.475386 0)
(2.18805 1.52737 3.22138e-19)
(-0.667424 -0.625865 7.38871e-19)
(-1.6157 3.36414 9.19343e-21)
(0.678054 0.917398 1.68774e-18)
(-7.61331 7.13831 0)
(2.9238 -1.78897 4.28043e-19)
(-1.23331 2.41538 -1.4014e-18)
(1.08907 0.774379 0)
(-5.71605 2.35582 7.98858e-19)
(-2.07726 1.56424 -2.40234e-21)
(-4.54674 2.32759 0)
(-0.670029 1.33717 -1.19657e-18)
(0.465741 0.354597 -1.08637e-19)
(-0.022226 -0.018685 2.34168e-19)
(-1.54169 3.2941 9.68667e-19)
(-0.615696 1.28261 6.81655e-19)
(-1.4363 3.30685 5.41787e-19)
(-1.54177 4.71627 -6.58136e-19)
(-0.308221 0.663616 0)
(-0.179714 0.348042 0)
(1.13047 0.94629 -1.16051e-19)
(-2.92793 1.32634 -5.87269e-19)
(0.120358 0.0860071 3.7558e-19)
(0.311572 0.234316 1.60705e-19)
(4.33897 -11.7045 5.85699e-19)
(-0.00443424 0.0252351 0)
(-1.4939 3.33484 2.11427e-19)
(1.18364 1.50631 1.91735e-18)
(1.91536 0.356363 0)
(7.77574 -9.41975 3.53599e-19)
(0.00745145 -0.000193305 0)
(1.90271 1.39398 -1.66324e-20)
(5.56047 -9.46185 1.27003e-18)
(-1.49622 2.94386 7.26076e-19)
(1.99285 1.30677 -4.96654e-19)
(-4.32663 1.77972 -6.51739e-19)
(9.76916 -1.55556 9.09202e-22)
(0.0464389 0.024913 -5.24651e-20)
(0.467327 0.338804 -2.3179e-19)
(0.575569 0.457034 2.69786e-19)
(1.7928 1.54179 -4.05858e-20)
(-1.3026 2.69745 -2.93966e-19)
(0.05681 0.063211 -1.94714e-19)
(0.627597 0.423864 3.98966e-19)
(0.523397 0.471143 -1.04061e-18)
(2.75558 -4.71436 6.80664e-19)
(3.56399 0.901339 0)
(5.32144 -10.0586 -2.91132e-21)
(0.11381 0.0999042 1.76583e-19)
(-8.5144 4.29411 1.76896e-21)
(-0.957778 -1.59878 2.39591e-21)
(-5.26015 5.76352 9.51576e-19)
(0.0282463 0.0106297 1.06671e-19)
(-3.45499 1.84395 0)
(-0.0963448 0.912968 -3.93234e-18)
(6.89173 -16.5297 1.06662e-18)
(0.601185 0.492504 -1.86827e-22)
(0.154566 0.129699 0)
(-0.954984 2.07743 4.24942e-19)
(-3.05155 1.35742 0)
(0.0843911 0.0721897 -2.13551e-19)
(5.83853 -13.2938 -8.27139e-19)
(2.96646 0.570091 0)
(-0.992764 2.06676 -4.42529e-19)
(-0.864447 2.39843 -1.93732e-18)
(0.0332069 0.0152936 -1.88485e-19)
(0.577305 -0.416903 -1.01334e-18)
(2.14245 -0.456485 0)
(-3.48694 1.30399 0)
(-5.17326 2.70648 -4.20152e-19)
(-4.52419 1.93737 5.23209e-21)
(0.171105 0.128538 0)
(0.277128 0.195862 2.55199e-19)
(0.521139 0.504924 -5.74891e-20)
(7.022 -10.8526 1.8827e-19)
(3.05134 0.656034 -1.96952e-22)
(0.49277 0.388874 6.30654e-20)
(0.0197077 -0.126595 -2.74905e-20)
(2.21534 0.781619 0)
(9.15553 -4.75459 0)
(0.573215 0.439333 -2.07968e-19)
(2.18289 2.01092 -1.55292e-19)
(0.20016 0.210786 -6.63906e-20)
(1.40656 0.209866 0)
(5.15597 -13.0123 -3.32912e-19)
(1.646 -0.788104 -6.42789e-19)
(0.144673 0.131253 -1.99782e-19)
(-1.41536 3.03443 1.95352e-18)
(-0.00858958 -0.117722 -7.19701e-20)
(1.53239 -10.2608 -5.42278e-19)
(4.28382 -24.4979 -5.16731e-19)
(-7.66879 5.11316 0)
(-9.19014 1.12148 0)
(1.19689 1.04317 2.18168e-19)
(0.0513599 -0.433352 0)
(-1.25487 0.956407 0)
(-1.25992 2.80164 0)
(-3.43542 1.3601 2.54653e-19)
(-1.28553 2.73505 7.89665e-19)
(-4.02548 3.14222 0)
(2.99109 1.56831 0)
(5.24345 -15.8001 0)
(-1.4541 3.23092 0)
(0.04965 -0.335421 -1.19475e-18)
(-4.52464 1.65428 9.582e-20)
(-3.84946 1.77394 1.72094e-19)
(-5.37861 2.02031 -3.74709e-19)
(-0.482351 -0.514375 0)
(-3.31351 1.21005 -4.16944e-19)
(-1.38542 3.33368 -3.24785e-19)
(0.00101294 -0.0354024 -3.1923e-19)
(-1.41633 3.49056 -1.04026e-20)
(3.41902 -0.0581398 0)
(1.98282 1.78793 -2.45926e-19)
(6.57503 -6.07757 0)
(-0.559487 0.753041 -2.89242e-18)
(-0.0495017 0.197125 -6.90123e-21)
(0.448296 -1.29855 -5.02615e-19)
(-0.061098 -0.57424 0)
(-1.41621 3.28501 -3.84875e-20)
(0.225157 -0.529621 0)
(1.8873 -0.0341599 -3.03063e-19)
(-0.0053332 -0.0829044 1.24446e-19)
(4.20153 -13.8675 -9.17171e-22)
(0.398743 -0.111619 0)
(-0.0959015 0.105556 -1.37136e-18)
(-5.5868 2.15459 -6.70758e-19)
(-2.89709 1.23466 -5.12976e-20)
(-0.0856766 -0.392724 -1.04763e-18)
(-0.318097 -0.403845 1.60967e-18)
(-1.4247 3.43697 2.54678e-19)
(-1.01966 1.23994 0)
(-1.32535 3.42903 -7.7897e-20)
(2.35519 1.19638 -1.03178e-18)
(-2.88516 1.18163 8.22407e-22)
(-0.607085 0.790476 -1.27692e-18)
(-8.84512 3.52486 1.31145e-18)
(0.00746381 -0.571589 3.12133e-19)
(2.63737 -23.1476 -3.46723e-21)
(0.653082 -24.9648 9.8832e-19)
(4.28273 -8.83366 -1.15087e-19)
(0.77292 -0.799976 -6.08711e-19)
(-10.0294 -5.05614 3.62749e-21)
(-1.35194 3.48466 0)
(-6.57908 2.9878 1.52075e-21)
(0.0206872 0.0304594 4.62742e-21)
(-0.556526 1.23101 -7.77901e-19)
(6.2363 -7.37408 -3.54479e-22)
(-0.944166 2.1465 5.69991e-21)
(0.00538617 -0.041794 0)
(-5.33412 1.9068 0)
(-1.21458 3.19946 -1.01992e-18)
(-1.41715 3.53616 -2.6537e-19)
(3.12261 -0.541108 -1.65036e-22)
(0.993296 0.93628 0)
(2.75922 -15.086 0)
(2.1422 2.04994 1.77797e-19)
(0.628119 0.525145 0)
(-3.86555 2.07412 2.35438e-19)
(0.847211 -0.534246 -4.09756e-19)
(-0.110211 0.320779 -6.17464e-20)
(-3.48402 1.19147 3.81775e-19)
(4.05266 -4.84958 0)
(-1.27051 3.32598 1.21771e-18)
(0.101111 0.104801 0)
(-0.0536777 0.00722139 0)
(1.95461 -0.19901 -1.78161e-19)
(0.0857406 0.00401348 2.54564e-18)
(1.76846 1.65679 -1.16304e-19)
(-4.44122 1.42977 -3.83432e-19)
(2.18676 2.16259 -2.01026e-19)
(0.685043 0.144241 0)
(2.05146 -17.9048 -8.05831e-20)
(-0.00154612 -0.0281757 8.72864e-20)
(-0.0522737 0.072145 -5.57427e-20)
(-0.0432227 -0.0119955 0)
(0.0765176 0.0816131 -2.71482e-18)
(0.0769616 -0.0230357 0)
(-0.0674877 -0.034284 -2.80919e-19)
(-5.18083 1.74196 1.55349e-19)
(-0.00246396 -1.92538 9.694e-19)
(-0.202919 -0.633446 0)
(-5.07232 1.98568 4.41376e-19)
(-0.0405845 0.293208 0)
(-9.02798 1.16711 0)
(-1.2228 2.87225 5.73062e-19)
(-9.81366 -12.113 0)
(0.570464 -33.1333 2.83591e-18)
(0.0228978 -11.3585 0)
(-1.60064 2.13029 -4.08575e-19)
(-0.0713152 -0.0825572 1.15819e-19)
(-0.0494247 -0.0281143 0)
(-4.62025 1.25395 0)
(-0.00642972 0.0356744 0)
(0.34017 0.333367 -1.78505e-19)
(-2.45992 -25.0807 -5.90745e-19)
(-0.0695603 -0.0308214 -7.34865e-21)
(-0.0374947 0.376571 9.99197e-19)
(-8.07619 1.98653 -1.51532e-21)
(3.48775 -6.04626 -3.60202e-19)
(0.0560303 0.0621418 0)
(-0.0495192 -0.0257612 -3.5154e-19)
(-0.156977 -0.283778 -8.12113e-19)
(0.015379 -0.0552489 -1.13641e-18)
(0.307511 0.276437 -2.13671e-19)
(2.43117 -0.809559 3.99504e-20)
(-1.67686 2.01701 1.48245e-20)
(3.11373 -2.11251 0)
(-4.98263 1.86564 4.19248e-19)
(-0.116133 0.0210242 0)
(0.539763 -15.3539 -8.96694e-22)
(-0.616153 -0.344464 -4.02629e-20)
(-4.4996 1.54063 -4.166e-19)
(-0.155811 0.341342 5.53408e-19)
(0.367468 0.29921 0)
(1.61572 1.0372 -4.69156e-19)
(1.72084 -0.24885 -3.6368e-23)
(0.873169 0.355414 1.68211e-18)
(-3.33486 1.96169 0)
(-5.11005 1.65708 -3.88399e-19)
(-0.389813 0.401212 5.83667e-19)
(0.030474 -0.0764433 1.14996e-18)
(-1.62989 -17.9349 -4.42422e-19)
(0.502261 0.35985 1.70195e-19)
(-0.485054 -0.279081 9.03281e-19)
(-3.63968 1.46615 2.99092e-19)
(-5.2886 -19.3849 -6.12947e-19)