/*--------------------------------*- C++ -*----------------------------------*\
  =========                 |
  \\      /  F ield         | OpenFOAM: The Open Source CFD Toolbox
   \\    /   O peration     | Website:  https://openfoam.org
    \\  /    A nd           | Version:  8
     \\/     M anipulation  |
\*---------------------------------------------------------------------------*/
FoamFile
{
    version     2.0;
    format      ascii;
    class       volVectorField;
    location    "0.750";
    object      U_0;
}
// * * * * * * * * * * * * * * * * * * * * * * * * * * * * * * * * * * * * * //

dimensions      [0 1 -1 0 0 0 0];

internalField   nonuniform List<vector> 
16200
(
(0.787978 0.680665 7.50493e-22)
(0.535626 0.393319 1.6079e-20)
(0.724141 0.614158 0)
(0.712586 0.331626 -1.81254e-20)
(0.930027 0.777006 -8.78336e-21)
(0.913758 0.794274 0)
(1.1156 0.840212 -5.51316e-20)
(1.15791 0.574344 0)
(1.28597 0.914476 -1.95428e-20)
(0.893234 0.149691 2.44886e-20)
(1.18606 0.97023 1.08494e-20)
(1.34403 0.753091 1.51537e-20)
(1.56019 -0.187472 -3.84599e-20)
(1.20167 -0.0490794 0)
(1.30117 0.996561 -1.07716e-20)
(1.45147 0.438352 0)
(1.53548 0.626931 -8.75718e-21)
(1.3584 0.938171 9.66292e-21)
(1.19885 0.972034 0)
(1.61734 0.491943 0)
(1.54725 0.24323 -1.55131e-21)
(1.31461 0.970845 0)
(1.10994 0.853603 2.10914e-21)
(1.46599 0.651838 -1.10405e-22)
(1.65071 0.107969 -2.9101e-22)
(1.42176 0.920105 7.50716e-21)
(1.71389 -0.0141666 -6.80844e-21)
(1.64987 0.360353 -2.00487e-21)
(1.27773 0.134757 -2.85086e-21)
(1.66173 -0.305776 1.84782e-20)
(1.69453 0.066832 0)
(1.3399 0.926768 -2.69922e-21)
(1.70157 -0.192314 3.97209e-21)
(1.24456 0.314909 6.28383e-22)
(1.72896 -0.406465 1.2649e-20)
(1.41921 0.581708 -6.83804e-22)
(1.10246 0.461692 0)
(1.19676 0.578891 0)
(0.892078 0.21282 6.64354e-22)
(0.983575 0.185378 0)
(1.30563 0.0869535 4.99767e-21)
(1.73663 -0.432671 4.87588e-22)
(1.28606 0.70057 0)
(0.814581 0.111339 0)
(1.40881 0.0157574 -9.08636e-21)
(1.0884 0.133822 3.15174e-21)
(0.861324 0.0400632 0)
(1.52013 -0.13341 0)
(0.969522 0.0410284 9.91747e-22)
(0.786993 0.585778 -2.83495e-21)
(1.61797 -0.29063 -1.84976e-21)
(0.910721 0.656385 -4.51651e-23)
(0.910432 0.210612 -5.3858e-23)
(0.42742 0.233626 -1.20715e-20)
(1.69956 -0.558538 0)
(0.820557 0.347319 7.49137e-22)
(0.647608 0.487846 -3.34937e-21)
(0.918032 -0.00172367 5.16907e-21)
(1.72707 -0.665306 4.60306e-20)
(1.63473 -0.41558 -1.24385e-21)
(0.463739 0.120321 -5.78177e-21)
(0.453937 -0.0512462 0)
(0.7224 0.382843 -1.20451e-21)
(0.462816 0.175467 0)
(1.62311 -0.68337 -4.04173e-21)
(0.386901 0.058318 -2.01237e-21)
(0.560834 0.0418294 2.71905e-20)
(0.386567 0.114181 7.646e-21)
(1.46146 -0.579388 -4.12049e-20)
(0.552596 0.0134478 3.71153e-28)
(0.592078 -0.20909 0)
(1.02472 -0.357142 0)
(0.750737 0.104701 -1.21226e-22)
(0.505721 0.247877 -1.03852e-20)
(0.73155 0.134053 1.7834e-22)
(0.744702 -0.145761 -2.36386e-21)
(0.734284 -0.00515702 8.52314e-23)
(0.974279 -0.471096 0)
(0.527078 -0.0205975 1.32559e-22)
(1.55542 -0.774355 0)
(1.42684 -0.645481 -4.63367e-21)
(1.37747 -0.207949 0)
(1.20925 0.0200214 1.10414e-22)
(0.54131 0.0824339 8.58617e-23)
(1.16398 -0.176781 -6.69421e-21)
(1.25207 -0.632033 -6.09642e-21)
(0.751798 -0.0218022 0)
(1.47749 -0.365479 -1.06779e-21)
(1.29143 -0.0715195 0)
(1.05484 0.00833403 6.77565e-21)
(1.72638 -0.807569 5.52786e-22)
(0.592116 -0.281863 1.18498e-21)
(1.59251 -0.620119 -4.32395e-21)
(1.18054 -0.669866 1.56554e-20)
(1.69976 -0.842895 1.7386e-20)
(1.57968 -0.518342 7.29598e-21)
(1.66929 -0.730159 1.05717e-20)
(1.63918 -0.821055 5.00554e-22)
(1.35344 -0.742823 0)
(0.773075 -0.0245255 2.43288e-23)
(1.05094 -0.321146 5.79463e-21)
(1.7199 -0.811395 -1.49864e-20)
(0.514147 -0.0128379 1.59772e-22)
(0.524147 -0.0107472 0)
(0.701258 -0.413842 8.22674e-22)
(0.38213 0.0554197 0)
(1.69915 -0.812451 -3.10479e-22)
(0.474872 0.0556853 6.74903e-22)
(1.27021 -0.679128 -8.52303e-21)
(0.453932 0.0738365 -8.93015e-22)
(1.61472 -0.834129 -2.21537e-20)
(1.59604 -0.798805 -3.03443e-20)
(1.2796 -0.761926 1.49097e-20)
(0.762761 -0.0344004 0)
(0.914148 -0.429197 0)
(0.496811 -0.0143089 5.36257e-21)
(1.74396 -0.684461 -2.7879e-20)
(1.72496 -0.626819 0)
(0.397642 -0.0376742 -1.79474e-20)
(0.81789 -0.468131 0)
(1.35814 -0.620378 -2.62886e-21)
(0.440959 0.0273393 0)
(1.60278 -0.752684 -2.9071e-20)
(0.44023 0.0143413 6.72175e-21)
(1.64815 -0.735592 -2.13512e-20)
(0.74045 -0.0482483 0)
(1.19844 -0.695353 -2.47306e-20)
(0.772812 -0.475583 -8.5605e-21)
(0.471763 -0.0181209 8.28466e-23)
(1.76575 -0.453752 1.24971e-20)
(1.75336 -0.34798 -1.9216e-22)
(1.43756 -0.490774 0)
(0.455378 -0.10996 0)
(0.935817 -0.456718 -9.5124e-22)
(0.43925 0.000378021 5.19368e-21)
(1.61903 -0.518091 -3.20365e-20)
(0.464704 -0.0367302 0)
(1.68801 -0.561707 1.52755e-20)
(1.13313 -0.507024 -3.96467e-20)
(0.696311 -0.0670953 3.99231e-21)
(0.635687 -0.452291 0)
(1.77738 -0.172882 -1.23388e-20)
(0.437167 -0.0237139 -4.43663e-21)
(1.04545 -0.385979 -2.20074e-23)
(1.76097 0.000947233 2.98261e-20)
(0.5441 -0.153497 -4.6717e-21)
(1.4801 -0.293115 -1.4196e-24)
(0.461158 -0.0215545 -4.60356e-21)
(1.63639 -0.185871 1.32884e-22)
(1.70585 -0.309691 -6.13316e-21)
(0.516951 -0.0730275 0)
(1.0943 -0.187889 -4.40022e-20)
(0.518155 -0.356005 -3.65326e-20)
(0.623228 -0.08913 1.66525e-21)
(1.76111 0.122843 -1.16551e-20)
(0.391246 -0.0288276 1.47054e-21)
(0.500309 -0.0360136 -1.81693e-21)
(0.646607 -0.163981 6.79753e-24)
(1.48183 -0.0658884 4.30445e-21)
(1.13672 -0.271961 2.17659e-23)
(1.73408 0.351405 -2.69925e-20)
(1.70226 -0.0407133 9.80277e-21)
(0.585568 -0.0898641 9.77408e-22)
(1.62917 0.204442 -6.55637e-23)
(1.09156 0.192885 0)
(0.429303 -0.1958 0)
(0.53002 -0.10104 2.16029e-23)
(0.333669 -0.0322024 0)
(1.71823 0.415345 -1.12694e-20)
(0.547786 -0.042032 -3.75282e-22)
(0.744309 -0.145821 -1.47869e-21)
(1.6967 0.606921 -4.61092e-20)
(1.19471 -0.139243 6.99148e-21)
(1.45089 0.166548 3.91483e-21)
(0.657008 -0.0885657 2.265e-22)
(1.60516 0.521469 -3.07971e-20)
(1.67343 0.240042 -4.94284e-21)
(1.12801 0.506324 3.82134e-20)
(0.393295 0.0075891 2.50901e-20)
(0.435976 -0.0938387 5.47306e-21)
(1.66946 0.637342 -1.24146e-20)
(0.267604 -0.0327274 4.95875e-21)
(1.20167 0.00671494 0)
(0.823746 -0.10899 3.71682e-21)
(1.66723 0.758341 -1.9465e-20)
(0.594181 -0.0397075 3.4617e-24)
(1.39405 0.391021 -1.92474e-21)
(1.62402 0.494058 -5.25064e-25)
(0.719617 -0.0723352 3.40226e-21)
(1.58261 0.71432 2.75703e-20)
(0.358922 -0.0658674 -1.03728e-20)
(1.18892 0.680495 2.391e-20)
(0.421535 0.203887 0)
(0.203384 -0.02646 -6.70399e-21)
(1.63025 0.780867 1.43478e-20)
(1.65969 0.824684 1.05801e-24)
(1.15628 0.1667 0)
(1.32221 0.574846 1.98158e-22)
(0.877551 -0.0646624 -5.74384e-21)
(0.631254 -0.0308301 3.83305e-21)
(1.5804 0.800246 0)
(1.57364 0.681291 -9.21955e-21)
(0.766605 -0.0491301 -4.81415e-21)
(1.25962 0.734163 1.91656e-20)
(0.509453 0.349389 1.58166e-20)
(0.312577 -0.0209311 1.14205e-20)
(1.61483 0.850177 -1.58277e-20)
(0.15511 -0.0113691 0)
(1.06834 0.321463 0)
(1.2418 0.698561 8.13405e-21)
(1.6748 0.827251 -3.18058e-20)
(0.905439 -0.0188238 1.44777e-24)
(0.655943 -0.0180903 -4.38962e-21)
(1.52969 0.802781 0)
(1.60062 0.810414 0)
(0.795682 -0.0232579 0)
(1.33682 0.707639 1.09225e-20)
(0.638504 0.425564 -3.78154e-25)
(0.306619 0.0289477 0)
(0.133073 0.00673375 -8.36924e-24)
(1.60538 0.858347 -6.42496e-20)
(0.667064 -0.00397185 0)
(1.15593 0.754414 1.64051e-20)
(1.72368 0.750017 3.30075e-20)
(0.910993 0.0240978 0)
(0.955606 0.444448 -9.13792e-23)
(1.65561 0.75192 1.27282e-20)
(0.805417 0.00441394 0)
(1.49985 0.848704 0)
(1.42452 0.616143 -5.03744e-21)
(0.787355 0.426689 1.56567e-25)
(0.343516 0.0697436 1.04811e-20)
(1.6297 0.752961 8.43515e-20)
(0.14109 0.0227078 -9.63177e-21)
(0.8308 0.512479 0)
(0.890085 0.0692909 0)
(1.77466 0.562188 -1.75081e-20)
(1.06378 0.724879 2.65941e-20)
(0.663127 0.0101418 0)
(0.797736 0.0310534 0)
(1.47153 0.832976 0)
(1.72322 0.624912 2.16728e-20)
(1.52302 0.498121 -1.36411e-21)
(0.414544 0.0906633 -7.47567e-21)
(0.934895 0.367402 0)
(1.6689 0.491159 0)
(0.175041 0.0308136 3.05039e-26)
(0.698465 0.512771 -2.78928e-25)
(0.64443 0.0231111 -4.86672e-21)
(1.80823 0.278132 3.75154e-20)
(0.835208 0.117701 0)
(0.963992 0.590658 -2.2236e-24)
(1.77382 0.40118 -2.08046e-20)
(1.46716 0.661148 -7.35861e-20)
(0.772206 0.0562129 -4.22351e-21)
(0.499239 0.0926258 -2.28287e-26)
(1.59318 0.340875 -8.58739e-22)
(1.05897 0.281778 -5.42533e-21)
(0.2256 0.031572 0)
(1.69663 0.106932 3.8704e-20)
(0.612841 0.034049 0)
(1.81196 -0.0539733 1.86478e-20)
(0.571248 0.425323 0)
(0.747587 0.160085 0)
(0.892385 0.299942 -4.3911e-20)
(1.47798 0.333702 -4.29995e-20)
(1.78805 0.118179 3.24534e-22)
(0.725331 0.0802653 5.97599e-21)
(1.61152 0.129208 2.21896e-21)
(1.1552 0.20644 0)
(0.581669 0.083099 0)
(1.67842 -0.317578 3.89118e-20)
(0.281955 0.0274335 -1.66633e-21)
(1.75815 -0.408284 1.86447e-20)
(0.869087 -0.0957774 4.4243e-20)
(0.569967 0.0425518 0)
(0.467018 0.26694 -2.62648e-20)
(0.638549 0.182607 0)
(1.76008 -0.190595 1.85912e-20)
(1.48213 -0.1175 8.57781e-22)
(0.658212 0.0973033 2.96767e-22)
(1.58533 -0.10973 3.18577e-21)
(0.651977 0.0680057 0)
(1.2315 0.144234 8.75751e-21)
(0.335447 0.0218614 0)
(1.63885 -0.660106 3.41277e-21)
(0.907903 -0.472137 4.15191e-20)
(0.414279 0.050539 -2.8412e-20)
(0.519203 0.0469414 -6.979e-22)
(0.526118 0.173848 -8.30444e-21)
(1.68484 -0.692457 1.63622e-20)
(1.47087 -0.53048 -3.98559e-20)
(0.580226 0.101882 9.31424e-22)
(1.69305 -0.496842 -3.4362e-23)
(1.51794 -0.355645 -3.34075e-21)
(1.26492 0.0615745 9.55718e-21)
(0.707117 0.0511139 0)
(1.60084 -0.861257 -2.45873e-20)
(0.381096 0.0157531 5.33127e-21)
(1.62067 -0.873698 3.13929e-20)
(0.994508 -0.716982 2.73557e-20)
(0.466765 0.0453421 1.69103e-26)
(0.431509 0.130234 0)
(0.433978 -0.188179 0)
(1.6132 -0.731951 -9.90103e-21)
(0.505682 0.0876277 -5.66891e-26)
(1.46118 -0.797446 3.54419e-20)
(1.42259 -0.575 0)
(1.23486 -0.0591031 0)
(0.747808 0.0342307 -7.41627e-21)
(0.416529 0.0102169 5.26227e-26)
(1.58645 -0.957782 0)
(0.422495 0.0349014 -4.68453e-21)
(0.522808 -0.397814 1.99684e-20)
(0.373507 0.0584968 -2.36701e-25)
(1.09562 -0.815969 -2.61754e-24)
(1.58104 -0.979828 0)
(0.450597 0.0543777 -8.36847e-26)
(1.46597 -0.920191 -2.64219e-20)
(1.54117 -0.891619 2.35107e-20)
(0.774437 0.0172404 0)
(1.15217 -0.200921 0)
(1.31565 -0.741274 -2.5728e-21)
(0.441416 0.00541173 7.82941e-21)
(1.59518 -0.97934 5.39109e-20)
(0.396092 0.0165874 -5.59498e-21)
(1.56238 -1.00829 1.9684e-20)
(0.653885 -0.534541 0)
(1.20143 -0.823681 9.03005e-21)
(0.363471 -0.0255644 9.46391e-21)
(1.48779 -0.978793 1.49946e-20)
(1.49307 -0.952848 2.23434e-24)
(0.428181 0.00979203 -6.89368e-21)
(0.786443 -0.00128983 -9.34788e-21)
(1.20407 -0.843526 0)
(1.02891 -0.33338 7.16887e-21)
(0.455777 0.000779656 6.9607e-26)
(1.64528 -0.930791 0)
(1.31294 -0.746417 -5.89497e-21)
(0.797841 -0.580093 3.05471e-25)
(1.56976 -0.971787 4.19665e-21)
(0.40491 -0.105676 -1.54201e-20)
(0.392899 -0.00514782 0)
(1.55401 -0.910416 1.41263e-20)
(1.44788 -0.992786 2.19501e-20)
(0.443282 -0.0381877 -6.61716e-21)
(1.09088 -0.862222 0)
(0.878453 -0.434877 -5.38164e-21)
(0.782837 -0.0206802 2.9513e-25)
(1.71524 -0.776288 3.63762e-20)
(0.459095 -0.00444535 0)
(1.61373 -0.753847 3.31396e-20)
(0.415065 -0.0263158 -4.02542e-21)
(1.43455 -0.619097 1.42991e-21)
(0.491207 -0.167163 -5.57799e-21)
(0.946875 -0.541803 0)
(1.42149 -0.905901 -3.74668e-20)
(1.64422 -0.801752 -1.16924e-20)
(0.491582 -0.0804954 5.07053e-21)
(0.758969 -0.0417397 -9.08619e-21)
(0.96563 -0.783002 -3.25138e-20)
(0.715098 -0.483138 -2.51553e-21)
(0.450657 -0.0113817 -8.70371e-21)
(1.78001 -0.493719 -6.02144e-20)
(1.09061 -0.435153 -5.68379e-25)
(0.459187 -0.0429844 -1.80678e-21)
(1.66393 -0.383307 4.05202e-20)
(1.54584 -0.465718 8.76622e-22)
(0.607762 -0.195828 -2.04246e-21)
(1.42816 -0.61863 0)
(1.72571 -0.59387 1.8239e-24)
(0.564327 -0.10651 0)
(0.858417 -0.559133 0)
(0.70671 -0.0675095 2.20975e-25)
(0.554998 -0.460936 9.33399e-21)
(0.428965 -0.0185291 -8.15708e-21)
(1.81406 -0.137715 6.59814e-24)
(1.68655 0.0836077 4.29632e-20)
(1.21394 -0.31714 0)
(0.731343 -0.189217 -3.01436e-21)
(1.60104 -0.241548 -1.85305e-21)
(0.516608 -0.0523683 7.52952e-22)
(1.44655 -0.178057 0)
(0.647868 -0.112761 -2.90726e-22)
(1.78132 -0.290514 1.12661e-20)
(0.800437 -0.177046 4.76838e-20)
(0.420465 -0.356977 0)
(0.626582 -0.090569 1.51339e-21)
(0.39207 -0.0244778 -5.17095e-21)
(1.81093 0.244504 -6.49342e-24)
(1.60642 0.0237107 -2.28279e-21)
(1.66689 0.502957 -4.10762e-20)
(0.57674 -0.053276 1.23139e-21)
(0.839377 -0.158778 5.49478e-21)
(1.31127 -0.2207 7.33966e-21)
(1.45683 0.316499 0)
(0.727082 -0.102367 4.29228e-21)
(1.79079 0.0464977 1.13754e-20)
(0.531503 -0.100259 0)
(0.811801 0.248521 -9.07837e-20)
(0.328796 -0.188459 2.82483e-24)
(0.33938 -0.0293798 0)
(1.75641 0.586226 3.89573e-20)
(1.35875 -0.0847715 0)
(0.920209 -0.120146 -6.41647e-21)
(1.5704 0.295025 0)
(0.630748 -0.0475416 -4.28128e-21)
(1.63746 0.76658 0)
(1.75737 0.38234 1.15079e-20)
(0.792378 -0.0834264 0)
(1.45944 0.670553 0)
(0.892718 0.571174 3.39096e-20)
(0.297597 0.0169707 0)
(0.439383 -0.0921303 -1.60203e-21)
(0.277669 -0.0312237 0)
(1.7023 0.797783 1.85756e-20)
(0.674336 -0.0378344 7.23195e-22)
(1.33992 0.0927612 0)
(1.50363 0.537203 -1.2382e-21)
(0.97419 -0.0806397 0)
(1.62207 0.890668 -4.89193e-20)
(1.69817 0.655993 1.16924e-20)
(0.841865 -0.062503 7.05248e-21)
(1.46977 0.844185 -3.24933e-20)
(0.364973 -0.064254 -3.96381e-25)
(0.336441 0.206914 -2.68359e-24)
(1.00499 0.729263 0)
(0.216152 -0.0261793 4.18117e-21)
(1.66756 0.908507 -3.73641e-20)
(0.706822 -0.0264251 2.30376e-25)
(1.62632 0.919201 -1.98266e-20)
(1.26833 0.279555 -7.46084e-21)
(1.00882 -0.0419313 -8.78466e-21)
(1.42481 0.7175 5.84262e-21)
(1.49525 0.894352 0)
(0.874949 -0.0392992 -8.54331e-21)
(1.64089 0.828001 1.34048e-21)
(0.435083 0.33782 0)
(1.11912 0.766693 -3.93037e-24)
(0.320565 -0.0220767 -7.24149e-21)
(1.65505 0.934688 -6.00548e-20)
(0.168772 -0.0124664 -5.4597e-21)
(1.02972 -0.00605226 -9.24229e-21)
(1.16368 0.446256 0)
(0.726898 -0.014248 -8.5019e-21)
(1.66138 0.856684 0)
(1.33556 0.759029 3.11415e-21)
(1.60405 0.916435 -2.58379e-21)
(0.891466 -0.0136483 -8.91754e-21)
(1.53955 0.859022 -2.6192e-20)
(0.313709 0.0231753 0)
(0.572635 0.401924 0)
(1.22946 0.719958 -7.7785e-21)
(0.14577 0.00429769 -6.93322e-21)
(1.67627 0.896087 -4.6544e-20)
(1.72201 0.715158 0)
(0.73264 -0.000978922 8.62732e-21)
(1.02667 0.040394 9.16308e-21)
(1.04072 0.569666 2.91221e-25)
(1.60068 0.74195 0)
(1.24811 0.836746 1.27777e-20)
(0.894749 0.0129635 -5.3481e-25)
(1.58399 0.935206 2.09867e-20)
(1.33688 0.598743 -1.19887e-21)
(0.346138 0.0598686 -4.20876e-25)
(0.727689 0.398457 4.42764e-25)
(0.150749 0.0187354 2.03509e-25)
(1.72985 0.694603 -5.57692e-20)
(0.904127 0.635522 9.26344e-21)
(0.977201 0.107103 -7.67664e-21)
(0.723024 0.0134432 -8.25539e-21)
(1.77552 0.46447 1.19798e-20)
(0.881104 0.0417166 -5.02993e-25)
(1.59441 0.857218 4.5543e-21)
(1.16165 0.829996 -2.25623e-20)
(1.67434 0.557284 1.15532e-20)
(0.409827 0.0787225 -4.08116e-21)
(1.42906 0.437727 4.13867e-21)
(0.877742 0.338888 2.9725e-21)
(1.77879 0.335524 -3.21076e-20)
(0.17938 0.0259484 -4.90786e-21)
(1.64019 0.572748 -1.6863e-23)
(0.881306 0.179385 0)
(0.69792 0.0279117 7.30323e-21)
(0.758342 0.614196 -1.36187e-20)
(0.83747 0.0784654 -7.55592e-21)
(1.7874 0.130807 -1.1624e-20)
(1.07149 0.690043 0)
(1.48775 0.259364 1.08641e-20)
(1.0019 0.254621 -6.42513e-21)
(0.4858 0.0804253 -8.1842e-22)
(1.78324 -0.0987109 6.88969e-22)
(1.71419 0.295047 3.77364e-21)
(0.222494 0.0265495 -2.23715e-21)
(1.6811 0.126889 0)
(0.654685 0.0430069 0)
(0.753811 0.23522 -2.17331e-21)
(0.618667 0.487763 0)
(1.75481 -0.217838 1.05281e-20)
(0.758991 0.116279 1.30767e-21)
(1.01359 0.359767 -4.628e-20)
(1.09406 0.175606 0)
(1.49228 0.0426858 0)
(1.74027 -0.507739 -4.4206e-21)
(0.559423 0.0707612 2.38879e-21)
(1.701 -0.0127959 -2.95147e-21)
(1.67271 -0.345895 8.26325e-20)
(0.270224 0.022546 9.59425e-26)
(0.513962 0.264453 0)
(1.34993 -0.355377 -9.66963e-20)
(0.611637 0.257899 0)
(0.592267 0.0583271 3.09246e-21)
(0.655304 0.143738 -1.72053e-21)
(1.68523 -0.552191 -1.48109e-22)
(0.621095 0.054812 0)
(1.44009 -0.202044 0)
(1.15313 0.102498 0)
(1.68783 -0.784516 5.06645e-20)
(0.314548 0.0168094 -3.56711e-21)
(1.64698 -0.333067 0)
(1.63961 -0.704452 0)
(1.35749 -0.720073 -4.20793e-20)
(0.494873 -0.0303423 0)
(0.4764 0.236129 6.82477e-21)
(0.515189 0.0677404 1.66355e-21)
(1.60576 -0.788763 -1.29524e-20)
(0.542812 0.148506 2.40917e-21)
(1.34555 -0.432926 -1.78261e-24)
(1.16241 0.0149537 -1.01566e-20)
(0.667298 0.0366124 7.79936e-21)
(1.63873 -0.943132 0)
(1.5626 -0.608677 -4.44189e-21)
(0.350475 0.0102764 -5.84384e-21)
(1.61282 -0.904355 2.9539e-20)
(1.39046 -0.900312 -5.88958e-20)
(0.435817 0.0654438 0)
(0.574982 -0.32273 1.31689e-23)
(0.372504 0.16945 -1.94827e-24)
(0.441445 0.124964 5.13755e-25)
(1.53507 -0.948169 1.77515e-20)
(1.22733 -0.618168 1.04418e-21)
(1.11917 -0.0939866 0)
(1.62631 -1.0249 -1.93419e-22)
(0.698231 0.0187601 0)
(1.60954 -0.992628 -4.53104e-20)
(0.375521 0.00466783 0)
(1.4715 -0.806532 0)
(0.319499 0.0703218 0)
(1.44776 -0.95685 -2.29072e-20)
(0.719702 -0.533205 0)
(0.370416 0.0495576 0)
(1.48559 -1.04013 4.09374e-20)
(0.370929 0.0763788 -8.09491e-25)
(1.05983 -1.14592 0)
(1.65454 -1.04536 2.09574e-20)
(1.06312 -1.08375 3.38633e-20)
(0.715476 0.00265929 9.05249e-21)
(1.0279 -0.210391 4.21332e-24)
(1.09447 -0.74526 0)
(1.38252 -0.944893 1.0839e-20)
(1.63299 -1.00567 1.90641e-20)
(0.389646 -1.65482e-05 0)
(0.949801 -1.06465 3.83659e-20)
(0.877043 -0.635593 0)
(0.332984 0.0240005 6.10574e-21)
(1.5243 -0.941662 0)
(0.325113 -0.0392985 1.21531e-20)
(1.44986 -1.06257 0)
(0.345052 0.0136968 8.46963e-21)
(0.947169 -0.804959 0)
(1.72049 -0.973901 0)
(0.8985 -0.309797 1.28635e-20)
(0.721164 -0.0112738 9.07826e-21)
(1.11368 -1.15831 -6.41536e-20)
(1.30131 -1.01365 -1.89122e-20)
(1.71133 -0.953918 3.42109e-22)
(0.393793 -0.00414321 -8.94588e-21)
(1.63037 -0.849769 1.34047e-20)
(1.0038 -1.14743 0)
(0.330405 -0.00596907 1.24899e-20)
(1.03307 -0.64746 0)
(0.387695 -0.138388 -1.82787e-24)
(1.03193 -1.14694 -1.22794e-20)
(0.92962 -1.12211 0)
(1.42774 -0.985002 -3.96665e-20)
(0.3662 -0.0491486 1.57219e-24)
(0.715415 -0.0235218 -8.86384e-21)
(0.745226 -0.370063 0)
(0.792778 -0.757242 0)
(0.906099 -1.09472 9.30256e-21)
(0.852079 -1.07764 -2.91926e-21)
(1.79922 -0.744251 -6.99461e-20)
(0.868146 -1.08925 -7.6028e-22)
(0.389224 -0.00884196 8.52438e-21)
(1.21306 -0.995002 3.08092e-20)
(0.890337 -1.10524 3.4152e-20)
(1.81387 -0.806854 2.25763e-20)
(0.496389 -0.210832 -5.8148e-21)
(0.658746 -0.861322 -7.07052e-21)
(1.18606 -0.578389 0)
(0.359554 -0.0330254 -1.19117e-21)
(1.75391 -0.698113 1.28229e-20)
(0.429333 -0.101651 -5.35964e-21)
(0.740852 -0.934049 4.4278e-20)
(0.847187 -1.09339 -1.838e-20)
(1.43175 -0.654851 0)
(1.85925 -0.3414 0)
(0.802293 -1.06646 -5.76952e-20)
(0.586192 -0.373786 0)
(0.638673 -0.594858 6.58688e-20)
(0.649863 -0.889819 2.36793e-20)
(0.397198 -0.548731 3.19712e-21)
(0.693367 -0.036656 -7.87277e-21)
(1.90155 -0.505463 2.45209e-20)
(0.446669 -0.610164 0)
(0.376077 -0.0137492 -9.72837e-25)
(1.12724 -0.824472 5.33952e-20)
(1.32502 -0.453641 0)
(1.85595 -0.430521 1.34675e-20)
(0.414597 -0.0535185 3.29221e-21)
(0.632907 -0.240336 9.16901e-22)
(1.44547 -0.109867 -6.51125e-20)
(0.741786 -0.912477 -2.14227e-20)
(0.499714 -0.636489 0)
(0.523234 -0.131507 1.72396e-21)
(0.387099 -0.594697 -4.27843e-20)
(1.85446 0.13492 -4.07694e-20)
(0.650398 -0.0516799 -1.37789e-24)
(0.441753 -0.310861 -9.32544e-24)
(0.517336 -0.280035 0)
(0.080545 -0.123241 -2.56947e-20)
(0.346228 -0.532837 0)
(0.337096 -0.528878 0)
(1.93559 -0.10709 -8.48565e-23)
(0.584031 -0.866605 3.70689e-20)
(0.843955 -1.00943 -6.06715e-20)
(0.354711 -0.0172043 0)
(1.07103 -0.399425 -6.39463e-20)
(0.771978 -0.225075 5.6399e-21)
(0.484665 -0.0630957 -3.49126e-21)
(0.119395 -0.19148 2.0326e-20)
(1.89289 -0.0802684 1.36383e-20)
(1.43587 -0.329239 -7.06879e-21)
(0.099248 -0.159312 0)
(0.629451 -0.134963 -1.89408e-21)
(0.222636 -0.286148 -5.27749e-20)
(0.787356 -1.04881 9.24974e-20)
(0.216344 -0.261271 0)
(1.44203 0.461621 6.29724e-20)
(2.02103 1.31384 0)
(0.484129 0.127549 -9.55527e-23)
(0.337097 -0.182345 0)
(0.589527 -0.0622648 0)
(1.78857 0.60044 0)
(0.0822592 -0.117329 0)
(0.0749531 -0.12245 -5.60039e-20)
(0.532941 -0.828854 0)
(0.30978 -0.50989 0)
(0.326136 -0.0180538 -4.91698e-21)
(0.502909 -0.638193 4.2331e-21)
(1.90752 0.3238 -5.14388e-20)
(1.05753 0.172137 -6.48412e-20)
(1.97079 1.24277 -2.85405e-20)
(0.892621 -0.18121 7.17482e-21)
(0.706362 -1.02936 0)
(1.86295 0.279944 0)
(0.779092 -0.952587 2.15248e-20)
(2.0422 1.16368 7.75207e-20)
(1.50084 -0.169681 0)
(2.18304 1.22609 3.10481e-20)
(0.55643 -0.0605086 4.22717e-21)
(0.727984 -0.116618 -5.70557e-21)
(1.43534 0.830914 5.10755e-20)
(0.770769 -0.989437 2.65515e-20)
(1.95517 1.38185 -2.64397e-20)
(0.551176 0.475238 -7.22838e-20)
(0.650926 -0.989541 -5.44915e-20)
(0.290329 -0.0135793 3.26074e-23)
(1.71268 0.879167 2.85084e-20)
(0.487738 -0.795972 0)
(0.522925 -0.0599952 0)
(0.863118 -0.133357 -2.22814e-19)
(1.09412 0.652379 0)
(2.06987 1.33862 -6.78571e-20)
(1.81755 0.689496 -2.22565e-20)
(0.291439 -0.0170455 3.98663e-21)
(1.34926 -0.208164 -3.50776e-20)
(0.618836 -0.0489234 -7.08427e-21)
(1.50465 0.0329075 0)
(2.18928 1.26699 2.77295e-20)
(0.985714 -0.131296 -9.5894e-21)
(1.78038 0.589431 -1.23321e-20)
(1.44107 0.983088 -6.53736e-21)
(0.409008 -0.511202 -5.72777e-21)
(0.807308 -0.087921 9.49656e-21)
(2.04113 1.319 0)
(0.0963865 -0.116605 -3.23104e-20)
(0.2291 -0.279467 0)
(0.871315 -1.00847 -9.44774e-22)
(0.72815 -0.847936 -2.20969e-20)
(0.30722 0.157677 0)
(0.603531 -0.956056 -3.31871e-20)
(0.675842 -0.999977 -8.79982e-21)
(2.16399 1.27374 0)
(1.65731 1.00148 -2.53926e-20)
(0.466589 -0.0429001 2.33874e-21)
(1.85138 1.16882 8.31951e-20)
(0.687736 0.685718 -5.18871e-20)
(0.697681 -0.961961 0)
(1.16442 0.896507 -7.76879e-23)
(0.22448 -0.281096 0)
(1.72776 0.896529 2.05271e-20)
(0.255699 -0.0138474 -2.72346e-25)
(1.92164 1.26734 -6.04652e-20)
(1.45266 0.246187 0)
(0.666741 -0.0338965 1.00067e-20)
(1.05493 -0.0878869 0)
(1.68525 0.795043 2.61436e-22)
(0.0922199 0.00806685 9.59197e-20)
(1.98143 1.35769 0)
(0.903681 -0.906356 -5.42137e-20)
(0.866797 -0.0609345 -1.09867e-20)
(2.24607 1.2246 0)
(1.46204 1.01574 6.87736e-20)
(0.430422 -0.0162007 0)
(1.95681 1.05721 2.53921e-20)
(0.297897 -0.0427099 0)
(0.840017 0.766283 0)
(0.384706 0.290784 -7.97746e-21)
(0.0690999 -0.115512 3.01596e-20)
(1.1214 -1.16333 -3.3699e-20)
(1.63019 1.02893 0)
(0.135282 -0.243993 2.84818e-22)
(0.227114 -0.00520108 -1.85146e-21)
(0.28586 -0.489592 2.13908e-20)
(0.831578 -0.89701 -5.7999e-20)
(0.594655 -0.0883855 1.28876e-19)
(0.209821 -0.0198828 0)
(1.24157 0.966184 2.81561e-20)
(0.0880541 -0.151502 -7.64955e-20)
(1.66352 0.997085 4.80672e-22)
(0.263633 -0.47027 -2.36387e-20)
(1.60033 0.920065 2.33991e-23)
(1.47477 0.982487 5.8738e-20)
(0.262349 -0.489711 4.57011e-20)
(1.10549 -0.052323 0)
(0.701123 -0.0189367 -1.06405e-20)
(1.35877 0.43725 5.90842e-21)
(2.2174 1.13532 -4.84835e-20)
(2.19889 1.19171 3.45893e-20)
(0.764082 -0.882245 -5.09413e-20)
(1.3554 0.867986 3.93071e-20)
(0.909391 -0.0346267 -1.18671e-20)
(1.50823 0.952041 -3.13465e-20)
(1.85838 1.29972 0)
(0.508192 0.366378 -1.24259e-23)
(0.985946 0.741779 -4.14012e-21)
(0.448229 -0.763882 -3.73985e-20)
(0.503921 -0.0729546 0)
(0.139097 0.232666 1.986e-21)
(1.09279 0.650569 0)
(0.422198 0.0159038 3.6862e-21)
(0.58963 -0.874756 5.61286e-20)
(0.874624 -0.833608 -5.95657e-20)
(1.62811 0.942231 -1.05606e-19)
(1.17993 -0.150199 -1.24584e-19)
(2.29603 1.07527 7.19287e-20)
(1.6475 0.983291 3.95416e-20)
(0.647405 -0.903964 0)
(0.559683 -0.927734 -4.30061e-20)
(-0.0517689 0.39772 -9.02734e-21)
(1.94576 1.10783 8.41867e-20)
(0.523607 -0.897864 5.5674e-22)
(0.780877 -0.81434 -3.23054e-20)
(0.167805 0.304797 0)
(-0.190153 0.350211 4.69773e-21)
(0.832454 0.49794 6.98579e-20)
(1.3211 0.936914 1.62707e-20)
(0.214132 0.00543092 3.02008e-21)
(0.575416 -0.912261 5.84359e-20)
(-0.182056 0.409901 -8.90134e-21)
(1.50698 0.830828 0)
(2.32136 1.12429 -1.09685e-19)
(1.6324 1.01431 -2.13228e-20)
(0.633961 -0.932209 -1.05988e-21)
(0.721607 -0.00457127 1.14722e-20)
(1.23752 0.582762 0)
(-0.113688 0.416222 -4.50972e-21)
(0.449746 -0.790458 -7.43981e-20)
(1.68744 1.01184 0)
(0.635924 -0.0843354 -1.94153e-19)
(1.541 0.979928 6.95046e-23)
(0.00484218 0.0205426 0)
(0.241597 -0.46052 -6.6777e-20)
(0.96851 0.67374 4.42017e-20)
(0.229636 0.12592 -1.27207e-19)
(0.698696 -0.861321 5.96511e-20)
(0.211273 -0.41993 4.06031e-20)
(0.685989 -0.793753 3.63589e-20)
(1.1164 0.0060608 -2.47949e-20)
(0.106481 -0.221742 0)
(0.0677397 -0.129196 0)
(1.45931 1.06275 4.41736e-20)
(-0.0632088 0.035287 1.10924e-19)
(0.82685 0.446443 -1.67301e-19)
(0.790355 0.514375 -8.19629e-20)
(1.57246 0.797924 -8.16329e-21)
(0.361614 0.239786 0)
(0.671109 -0.829889 1.42035e-20)
(0.93991 -0.00918751 1.2105e-20)
(0.032954 0.238137 0)
(1.12178 0.626635 1.95017e-21)
(0.261169 0.149366 0)
(0.445801 0.0444686 7.28113e-22)
(1.71677 0.855985 -4.32689e-20)
(0.913092 -0.813389 3.93877e-20)
(2.37491 1.11398 1.94412e-19)
(-0.0448829 0.0336602 1.15411e-19)
(0.661409 0.373372 -1.93677e-24)
(0.237471 0.141657 2.88978e-20)
(1.09983 0.688903 9.60555e-20)
(1.01861 0.712797 -1.22909e-19)
(1.80493 1.32917 1.56299e-20)
(0.458213 -0.825016 -1.66384e-20)
(0.409605 0.290717 8.18263e-20)
(1.5169 0.802965 -1.69405e-19)
(0.221021 0.0146297 5.74766e-21)
(1.6449 0.980859 -2.32462e-20)
(-0.189985 0.255532 0)
(1.40831 0.818617 3.4369e-23)
(0.387144 0.298058 -7.54256e-20)
(1.09813 0.677544 -2.07297e-24)
(1.50767 0.983097 -1.03322e-22)
(1.05977 0.0947154 1.20561e-20)
(0.174914 0.102784 -6.30702e-20)
(-0.0235897 0.0239185 0)
(0.727945 0.00977764 -2.33724e-20)
(1.82519 0.644345 -4.79734e-20)
(0.94416 0.704562 -2.09139e-23)
(0.395144 0.284667 0)
(0.313784 -0.619686 2.6117e-20)
(-0.0683933 0.036984 0)
(0.422181 0.277207 9.56031e-20)
(1.65993 0.590798 1.32351e-20)
(-0.0960856 0.262604 0)
(0.340514 -0.647207 -2.60075e-20)
(0.946893 0.0211749 -1.19379e-20)
(0.41249 0.233512 8.45464e-20)
(0.218808 0.363423 9.72379e-21)
(0.0242076 0.362447 0)
(-0.0150022 0.0171381 0)
(0.0148756 0.0247199 8.98843e-20)
(0.074511 0.00636988 2.42979e-22)
(0.970287 0.507251 0)
(0.778612 0.500567 -1.2607e-19)
(0.828438 0.656244 2.35467e-20)
(1.24711 0.448754 4.08288e-21)
(0.494333 0.0622226 6.84858e-25)
(0.781772 0.58402 -2.78592e-20)
(0.980407 0.0769223 -9.35043e-22)
(-0.0329866 0.199787 0)
(0.821019 0.317723 0)
(0.962518 0.686083 9.12707e-20)
(1.90624 1.41414 5.50028e-20)
(0.41427 0.36748 2.7379e-20)
(0.245357 0.0205088 0)
(1.50012 0.625818 1.39366e-21)
(0.0736637 0.41195 6.80109e-21)
(0.416457 0.311088 8.73933e-20)
(0.838712 -0.742109 1.21512e-19)
(0.863935 0.077182 -2.06783e-21)
(1.51461 0.899116 3.52343e-20)
(1.92839 0.288657 2.9737e-20)
(0.948735 0.188041 0)
(0.943658 0.723235 0)
(1.43031 1.09136 -8.85419e-20)
(0.183287 0.227289 0)
(0.71887 0.0242133 0)
(0.405515 -0.776585 0)
(-0.00280799 0.0163449 -5.0499e-20)
(0.432321 -0.799743 4.8963e-20)
(0.908115 0.0679807 0)
(-0.166647 0.168322 0)
(1.75674 0.345887 0)
(0.501337 -0.875893 0)
(0.143353 0.168457 7.49452e-21)
(0.123603 -0.00265565 -2.46647e-20)
(-0.061487 0.0410112 -3.16125e-20)
(0.305825 -0.0366823 9.06582e-20)
(0.127654 0.120998 0)
(0.0097918 0.00995837 1.11533e-19)
(0.662655 -0.761062 -2.4141e-20)
(0.835266 0.0113547 -7.82114e-21)
(0.544727 -0.805311 9.42792e-22)
(0.556069 0.0670516 0)
(1.81035 1.40066 9.43799e-20)
(0.953168 0.219613 0)
(0.386598 -0.493466 -4.89834e-20)
(0.387903 -0.0306412 1.17516e-22)
(0.0991226 0.466188 6.96313e-21)
(0.23066 0.483813 0)
(0.469955 -0.845685 -2.58588e-21)
(0.2435 0.450144 0)
(0.281451 0.0216271 -7.60525e-22)
(0.690195 0.0607406 2.90707e-21)
(1.58166 0.402683 1.03023e-23)
(0.111008 0.156797 0)
(0.244908 -0.018748 -3.24065e-20)
(0.724527 -0.0927957 1.67398e-19)
(-0.0731187 0.0390726 9.70066e-21)
(0.290201 0.461276 1.42787e-20)
(0.102547 0.103336 -1.02016e-20)
(0.604921 -0.787213 1.8894e-20)
(0.657961 -0.755048 0)
(0.600802 -0.717388 -8.77977e-21)
(-0.0891153 0.147665 4.87323e-21)
(0.68627 0.0406544 4.6814e-24)
(0.397249 -0.492141 -2.35606e-20)
(0.806412 0.261076 8.15645e-21)
(0.229065 0.292942 -2.63312e-21)
(1.55245 0.625347 2.11693e-22)
(1.96007 -0.135734 -6.00997e-20)
(1.34969 0.293406 6.0692e-21)
(0.145403 0.452441 7.08124e-21)
(0.775501 0.695915 -7.60695e-23)
(0.555333 -0.753477 0)
(0.819577 0.118852 8.67542e-24)
(0.203666 -0.00991044 1.11923e-22)
(0.17698 -0.372124 -5.01893e-20)
(1.19676 0.274982 2.56896e-23)
(0.294108 -0.601485 -6.46624e-22)
(0.632469 0.00800965 0)
(0.381432 -0.0466004 0)
(0.731281 -0.648674 -7.58203e-20)
(0.493369 -0.815458 -1.98415e-20)
(0.618371 0.0610905 -3.39298e-24)
(1.19727 1.01478 0)
(1.63594 0.162082 0)
(1.81866 1.44366 -6.44063e-20)
(0.749767 0.614677 0)
(1.56925 -0.179359 -6.40904e-20)
(0.182263 0.413913 5.01994e-21)
(0.518193 -0.0597436 -1.44433e-21)
(0.0404735 0.00472112 -1.07992e-19)
(1.03982 0.118896 0)
(0.664337 -0.684249 9.23527e-20)
(0.170732 0.167276 0)
(0.923031 0.117894 0)
(0.321786 0.0191 -2.83557e-21)
(0.174706 -0.0217743 6.36368e-20)
(1.66066 1.36711 4.51016e-20)
(0.182969 -0.0144401 1.00808e-19)
(1.85182 1.40797 6.52289e-20)
(0.0715958 0.130946 0)
(1.81395 0.0560329 -1.08133e-20)
(0.131259 -0.00403513 1.45646e-21)
(0.775378 0.100164 -1.58203e-21)
(0.0844012 0.00246445 0)
(0.530567 -0.0332065 -6.77592e-20)
(0.585982 -0.0267305 0)
(0.207912 0.0978748 1.45792e-19)
(0.398279 -0.0468625 -4.06485e-20)
(-0.0200091 0.41732 -1.62757e-20)
(0.273134 0.34333 0)
(1.07787 -0.129113 -1.14988e-19)
(0.63732 -0.0595348 0)
(0.652756 0.300107 0)
(0.378683 -0.752098 4.06212e-20)
(0.600204 0.556235 0)
(1.58916 0.14069 -6.02603e-20)
(1.38928 0.134597 0)
(2.11765 -0.263669 1.10554e-19)
(0.455087 0.0306455 2.05878e-21)
(0.1988 0.0934885 0)
(0.625565 0.0603049 0)
(0.876178 0.441137 0)
(0.520491 0.435338 7.1006e-20)
(1.9527 -0.327453 2.91277e-20)
(0.257555 0.131146 3.64688e-21)
(0.830923 -0.0885794 2.45558e-20)
(0.696436 0.160674 -5.67078e-24)
(1.28656 0.176785 7.74789e-21)
(0.884483 0.451228 0)