/*--------------------------------*- C++ -*----------------------------------*\
  =========                 |
  \\      /  F ield         | OpenFOAM: The Open Source CFD Toolbox
   \\    /   O peration     | Website:  https://openfoam.org
    \\  /    A nd           | Version:  8
     \\/     M anipulation  |
\*---------------------------------------------------------------------------*/
FoamFile
{
    version     2.0;
    format      ascii;
    class       surfaceScalarField;
    location    "0.750";
    object      phi;
}
// * * * * * * * * * * * * * * * * * * * * * * * * * * * * * * * * * * * * * //

dimensions      [0 3 -1 0 0 0 0];

internalField   nonuniform List<scalar> 
23855
(
9.83113e-05
-0.000706912
0.0006086
0.000623796
-0.000394314
-0.000229482
0.000835618
-0.00035902
-0.000476598
9.90096e-05
0.000474963
-0.000573972
0.000159451
-0.000950025
0.000790574
0.00102217
-0.00076935
-0.000252823
0.0011499
-0.000676059
-0.000473843
0.00112781
-0.000880685
-0.00024712
-0.000271254
0.00106275
-0.000791494
0.000584471
0.000130771
-0.000715243
0.00102629
-0.00123602
0.000209731
0.00126534
-0.00100376
-0.00026158
-0.00065485
0.00158318
-0.000928332
0.0010986
-4.9026e-05
-0.00104958
0.000216921
-0.00131461
0.00109768
0.00125088
-0.00124923
-1.64469e-06
0.001381
-0.00129493
-8.60707e-05
0.00107016
-0.00134141
-0.0002113
0.00123759
-0.00141817
0.00141079
7.37469e-06
-0.00120277
-0.000138229
0.001341
0.00021992
-0.00136658
0.000137907
-0.00111244
-0.000274743
-0.00110569
0.00138043
-0.000293534
0.00139376
-0.00110022
0.00140994
-0.00124017
-0.000169771
-0.000668777
0.00151146
-0.000842679
-0.00142353
0.00136064
6.28925e-05
-0.00120653
0.0009824
0.000224128
0.000600337
-0.00125519
0.00112047
-0.00141401
0.000201083
-0.00136681
0.000846745
0.000343295
-0.00119004
-0.000864205
-0.000175699
0.0010399
-0.00042504
0.00153076
-0.00110572
-0.00119115
0.000916409
0.000916537
-0.000956268
3.97314e-05
1.1084e-05
-0.00100492
0.000993834
-7.23173e-05
-0.000702128
-0.000108129
0.000745474
-0.000637345
-0.000187015
-0.00101951
0.00113364
-0.00155868
0.00109407
-0.0011151
2.10251e-05
-4.33463e-05
-0.000663002
0.001308
-4.81913e-05
-0.00125981
-0.000992477
0.000618664
0.000373812
-4.67303e-05
0.0007378
-0.00069107
0.00111034
0.000224685
-0.00133503
4.4804e-05
0.000728413
-0.000773217
-6.09524e-05
0.000538546
-0.000477594
-0.00137704
0.00101276
0.000364283
-0.000707099
0.000729722
-2.2623e-05
-0.000949992
0.000152131
-0.000249337
0.000477327
-0.000227989
-0.000498714
0.00148467
-0.000985959
-0.000739304
0.000461213
0.000278091
-0.000336117
0.00057693
-0.000240813
0.00072674
-3.04613e-05
-0.000696278
0.00160443
-0.000627522
-0.000976913
-0.000961587
-0.000415454
-0.000313997
-0.000138654
0.000452651
3.28754e-05
0.000351087
-0.000383962
-0.000427431
-0.000311873
0.000478819
-0.000199184
-0.000279635
0.0014698
-0.000895512
-0.000574288
-7.14514e-05
0.000355695
-0.000284244
-0.00040924
0.000477555
-6.83147e-05
-0.000259178
0.000386884
-0.000127706
0.00127182
-0.000841191
-0.000430628
-0.000486601
-0.000558962
0.000376364
0.000182597
-0.000929194
0.000287253
0.000641941
-0.000703059
9.80496e-05
0.00060501
0.000283765
0.000217785
-0.000501551
-0.00020872
-0.00049434
0.000511516
-0.000633843
0.000122327
-3.73764e-05
-0.000600463
-0.000353557
-0.000575637
-4.64102e-05
0.000473881
-0.000427471
0.000687544
0.000809007
-0.00149655
-0.000625276
0.00136703
-0.000741754
0.00103512
0.000204193
-0.00123932
0.000962484
-1.93817e-05
-0.000943102
6.20506e-05
0.000415884
-0.000477935
-0.000207973
0.000982757
-0.000774784
0.00120755
-0.00049803
-0.000709517
0.000607226
3.3756e-05
-0.000640982
0.000970745
0.000378594
-0.00134934
0.00106771
-0.0011001
3.23927e-05
0.000796558
-0.000820712
2.41538e-05
0.000931861
0.000735132
-0.00166699
-0.000207965
-0.000350997
0.00146157
-0.000872169
-0.0005894
0.000581268
0.000597984
-0.00117925
0.00166936
-0.000765457
-0.000903902
0.000499983
0.00157536
-0.000674406
-0.000900953
-0.000753172
0.00160641
-0.000853235
-0.000700189
0.00135494
-0.000654752
-3.29134e-05
0.000610363
-0.000577449
-0.000344034
0.000959426
-0.000615392
0.000741441
0.00091357
-0.00165501
-2.13552e-05
0.000369303
-0.000347948
0.000393715
-2.44117e-05
-0.000369303
-0.000321604
0.000705188
-0.000383584
5.45539e-05
-0.000313732
0.00166337
-0.000720609
-0.000942766
0.000365783
4.13093e-05
-0.000407092
0.000634691
0.000618324
-0.00125301
-0.000378397
6.44001e-05
-0.000759473
0.00160207
-0.000842597
0.00072447
0.000825302
-0.00154977
-0.000709118
0.00130843
-0.000599312
-4.09081e-05
0.000599391
-0.000558483
-0.000433043
0.000896881
-0.000463838
-2.19416e-05
0.000347948
-0.000326006
0.000628165
0.000982121
-0.00161029
0.00161148
-0.000553315
-0.00105816
0.000309804
-2.11218e-05
-0.000288682
-0.000373163
0.000827052
-0.000453889
0.000717663
-0.00129166
0.000574
0.000342692
2.09412e-05
-0.000363633
-0.000668709
0.00156461
-0.000895901
0.000323843
-0.00034219
1.83469e-05
0.00067289
0.000885738
-0.00155863
-5.99708e-05
0.000585157
-0.000525186
-0.000639246
0.00122116
-0.000581913
-0.000466685
0.000805566
-0.00033888
-2.66738e-05
0.000326006
-0.000299332
0.000417281
0.00109712
-0.0015144
0.0015154
-0.000305986
-0.00120942
0.000831429
0.000453035
-0.00128446
0.000384773
-7.72498e-05
-0.000307523
-0.00036758
0.000920565
-0.000552985
0.000345286
1.95742e-06
-0.000347244
-0.000457241
0.00147766
-0.00102042
0.000363312
-0.00034269
-2.06223e-05
0.000513169
0.000987433
-0.0015006
-0.000455351
0.00108914
-0.000633784
-8.67593e-05
0.000559127
-0.000472367
-0.000436315
0.000689706
-0.000253391
0.000153457
0.0012354
-0.00138886
-3.3941e-05
0.000299332
-0.000265391
-0.000311965
0.000981251
-0.000669286
0.00137643
-8.46723e-06
-0.00136796
0.000471842
-0.000110024
-0.000361818
0.000955479
0.000261855
-0.00121733
0.000367866
-1.19243e-05
-0.000355942
-0.000167016
0.00135132
-0.00118431
0.000278995
0.00111618
-0.00139518
0.000419939
-0.000372634
-4.73052e-05
-0.000162727
0.000920274
-0.000757547
-0.000339288
0.000555933
-0.000216644
-0.000112415
0.000514398
-0.000401983
-0.000125057
0.00136231
-0.00123726
-4.2031e-05
0.000265391
-0.00022336
0.000403247
-2.06236e-05
-0.000382623
0.000557428
-0.000118414
-0.000439014
0.00106439
4.82728e-05
-0.00111266
-0.0002206
0.00100764
-0.000787041
0.0011981
0.000296794
-0.00149489
2.65469e-05
0.00123985
-0.00126639
0.000482658
-0.000422744
-5.99144e-05
0.000169865
0.00117545
-0.00134531
0.000183612
0.000745135
-0.000928747
-0.000185179
0.000418852
-0.000233673
-0.000123803
0.000450827
-0.000327023
-4.88438e-05
0.00022336
-0.000174516
-0.000388865
0.00146896
-0.00108009
0.000442538
-2.40546e-05
-0.000418483
0.000629629
-0.000106284
-0.000523345
0.00103877
0.000531447
-0.00157022
-0.000116729
0.000999941
-0.000883212
0.00114918
-0.000168542
-0.000980638
0.000541158
-0.000481419
-5.97393e-05
0.000456119
0.00100141
-0.00145753
-0.000231699
0.00134869
-0.00111699
0.000466342
0.000621805
-0.00108815
8.62914e-06
0.000300629
-0.000309258
-0.000112499
0.000376091
-0.000263592
-0.000581443
0.00153774
-0.0009563
-4.9068e-05
0.000174516
-0.000125448
-2.20586e-06
0.000948469
-0.000946263
0.000680469
-7.9774e-05
-0.000600695
0.000934801
0.000673925
-0.00160873
0.000478222
-2.24867e-05
-0.000455736
0.00120944
-0.000371726
-0.00083771
-0.000457653
0.00143109
-0.000973433
0.000587703
-0.000538387
-4.93157e-05
0.00063542
0.000882998
-0.00151842
-7.85006e-05
0.000303637
-0.000225136
0.000625787
0.000576816
-0.0012026
0.000199775
0.000229094
-0.000428869
-4.00447e-05
0.000125448
-8.54037e-05
-0.000702208
0.00157718
-0.000874975
0.000888515
0.000741274
-0.00162979
0.000126282
0.000850684
-0.000976966
0.0012399
-0.000704976
-0.000534927
0.000708425
-4.73571e-05
-0.000661068
0.000505051
-1.71198e-05
-0.000487932
0.000720211
0.000830983
-0.00155119
-0.000620883
0.0014805
-0.000859621
0.000618161
-0.000584854
-3.33072e-05
0.000677083
0.000599248
-0.00127633
0.000344332
0.000221721
-0.000566053
-2.80214e-05
0.000247366
-0.000219344
-0.000758999
0.00159972
-0.000840725
-2.22296e-05
8.54037e-05
-6.31742e-05
0.000256821
0.000717734
-0.000974555
0.00123777
-0.000645202
-0.000592565
0.000893317
0.000751369
-0.00164469
0.000714823
-1.31164e-05
-0.000701706
0.000521239
-9.4655e-06
-0.000511773
-0.000724748
0.00150618
-0.000781427
0.000736473
0.00083616
-0.00157263
0.000632211
-0.000617324
-1.48874e-05
0.000657152
0.000664974
-0.00132213
0.00041915
0.000276117
-0.000695267
2.74751e-05
0.000218593
-0.000246068
7.51517e-07
6.31742e-05
-6.39257e-05
-0.000758786
0.00160326
-0.000844475
0.000526661
-1.30293e-06
-0.000525358
0.00120184
-0.000694358
-0.000507478
0.000949521
0.000690412
-0.00163993
0.000702996
2.00073e-05
-0.000723003
0.000365247
0.0005738
-0.000939047
0.000695165
0.000893462
-0.00158863
0.00063044
-0.000635154
4.71365e-06
-0.000762537
0.00150692
-0.000744384
0.000579673
0.000767624
-0.0013473
0.000423381
0.000379337
-0.000802718
7.38789e-05
0.000223987
-0.000297866
-0.000652536
0.00158184
-0.0009293
2.20808e-05
6.39257e-05
-8.60065e-05
0.000426302
0.000443154
-0.000869456
0.000669714
5.30853e-05
-0.0007228
0.00106231
0.000518566
-0.00158088
0.00112455
-0.000667832
-0.000456716
0.000520644
6.93677e-06
-0.000527581
0.000615146
-0.000639153
2.40065e-05
-0.000737361
0.00148448
-0.000747115
0.000577621
0.000994702
-0.00157232
0.00046949
0.000896293
-0.00136578
0.000102012
0.000260337
-0.00036235
0.000366277
0.000513711
-0.000879988
-0.000422471
0.00150444
-0.00108197
3.75285e-05
8.60065e-05
-0.000123535
0.000427171
0.000335383
-0.000762553
0.000503574
1.48976e-05
-0.000518472
0.00121426
0.000252072
-0.00146633
0.000609266
8.74314e-05
-0.000696698
0.000995009
-0.000535747
-0.000459262
0.00036662
0.00112905
-0.00149567
-0.000575139
0.0014138
-0.00083866
0.000586068
-0.000627579
4.15112e-05
0.000109019
0.000317134
-0.000426153
0.000311237
0.00102298
-0.00133422
0.000279442
0.000650023
-0.000929464
4.52154e-05
0.000123535
-0.00016875
-9.79793e-05
0.0013684
-0.00127042
0.000476961
2.18238e-05
-0.000498785
0.00136919
-6.50998e-05
-0.00130409
0.000355411
0.000268084
-0.000623496
0.000524471
0.000116948
-0.000641419
0.000815831
-0.000552587
-0.000263244
-0.000286434
0.00128532
-0.000998883
9.71369e-05
0.00127177
-0.00136891
0.000540148
-0.000597565
5.74171e-05
0.000106722
0.00113649
-0.00124321
0.000206026
0.000760809
-0.000966835
9.9706e-05
0.000381358
-0.000481064
0.000266173
0.00117133
-0.0014375
4.4795e-05
0.00016875
-0.000213545
0.00149851
-0.000390456
-0.00110806
0.000623955
-0.00072394
9.99849e-05
0.000441368
2.71062e-05
-0.000468474
0.000221169
0.00024712
-0.000468289
0.000426834
0.000133182
-0.000560016
-0.000194421
0.00139421
-0.00119979
9.90978e-05
0.00109761
-0.00119671
0.000480616
-0.000549395
6.87784e-05
-0.000120982
0.00122812
-0.00110714
8.13513e-05
0.000442111
-0.000523462
0.000140464
0.00084902
-0.000989484
3.89531e-05
0.000213545
-0.000252499
0.000575243
0.000971355
-0.0015466
0.000476961
-0.000921512
0.000444551
3.82814e-05
0.000290798
-0.000329079
0.000399695
2.94459e-05
-0.000429141
0.000335693
0.000127489
-0.000463182
0.00157836
-0.000637821
-0.000940537
0.000466144
0.000894937
-0.00136108
0.000416213
-0.000487671
7.14575e-05
-0.0004703
0.00148791
-0.00101761
-0.000348136
0.00129106
-0.000942929
4.66302e-05
0.000916312
-0.000962942
6.09783e-05
0.000493151
-0.000554129
0.000763561
0.000835442
-0.001599
3.0311e-05
0.000252499
-0.00028281
0.00161473
-0.000792195
-0.000822533
0.000418147
0.00066851
-0.00108666
0.000357684
2.77299e-05
-0.000385414
0.00027189
9.54922e-05
-0.000367382
-0.000160756
0.000404425
-0.000243669
-0.000674192
0.00153731
-0.000863114
0.000360182
-0.00042119
6.10082e-05
0.000711156
0.000750545
-0.0014617
-0.000543911
0.00131966
-0.00077575
-7.81929e-05
0.000953718
-0.000875525
4.16465e-05
0.000532971
-0.000574618
2.11582e-05
0.00028281
-0.000303968
0.000858785
0.00076895
-0.00162774
0.000324406
2.07333e-05
-0.000345139
-0.000329695
0.000561729
-0.000232034
0.000249743
4.18167e-05
-0.00029156
0.000440526
-0.00120096
0.000760433
0.00163381
-0.000877793
-0.000756014
0.000325697
-0.000362914
3.72167e-05
0.000830053
0.000685842
-0.00151589
-0.000811273
0.00155757
-0.000746299
2.18092e-05
0.000562234
-0.000584043
-0.000214572
0.000958944
-0.000744372
-0.000691078
0.00131551
-0.000624431
1.2384e-05
0.000303968
-0.000316352
0.00088694
0.00076246
-0.0016494
0.000307922
8.58195e-06
-0.000316504
0.00163823
-0.000900485
-0.000737748
-0.00043901
0.000724123
-0.000285113
0.000511652
-0.00127836
0.00076671
0.000274067
-2.26966e-05
-0.000251371
-0.000882219
0.0015573
-0.000675077
0.000865276
0.000688012
-0.00155329
0.000321097
-0.000326412
5.31439e-06
1.30073e-06
0.00058052
-0.000581821
-0.000780663
0.0012793
-0.000498639
-0.000337847
0.00092875
-0.000590902
3.52264e-06
0.000316352
-0.000319874
0.000856024
0.000808569
-0.00166459
0.000621677
0.000702814
-0.00132449
-0.000475231
0.00086227
-0.000387039
0.00162862
-0.000845246
-0.000783377
0.000339181
-8.31551e-05
-0.000256026
0.00031119
-5.27964e-06
-0.00030591
0.000840831
0.000742201
-0.00158303
-0.000890876
0.00153755
-0.000646676
0.000349108
-0.000319887
-2.92209e-05
-0.000796706
0.00120664
-0.000409934
-0.000430169
0.000864017
-0.000433848
-2.19337e-05
0.000587966
-0.000566033
0.000718634
0.00091801
-0.00163664
-6.14522e-06
0.000319874
-0.000313729
0.00157536
-0.00064805
-0.000927309
0.000335131
-1.81879e-05
-0.000316943
0.000769514
0.000588751
-0.00135827
0.000431743
-0.000127278
-0.000304464
-0.000441016
0.000967175
-0.000526159
-0.000791983
0.00148356
-0.000691576
0.000746584
0.000850973
-0.00159756
0.000403043
-0.000344737
-5.83056e-05
-5.13618e-05
0.000582737
-0.000531375
-0.000719002
0.00108135
-0.000362351
-0.000471534
0.000765888
-0.000294354
-1.67042e-05
0.000313729
-0.000297025
0.000458832
0.00108487
-0.0015437
-0.00035262
0.00103581
-0.000683195
0.000375249
-2.74041e-05
-0.000347845
0.00145991
-0.000325821
-0.00113409
0.000924698
0.000435917
-0.00136062
0.000535928
-0.000146291
-0.000389637
-0.000532604
0.00136981
-0.000837208
0.000551771
0.000999931
-0.0015517
0.000472015
-0.000396551
-7.54646e-05
-0.000500341
0.000902153
-0.000401812
-8.38731e-05
0.000558955
-0.000475082
-0.000445214
0.000638221
-0.000193007
-2.75802e-05
0.000297025
-0.000269445
0.000120548
0.0012791
-0.00139965
0.0012812
6.52979e-05
-0.0013465
-0.000256481
0.00107967
-0.000823191
0.000633419
-0.000140978
-0.000492441
0.00107155
-0.00128748
0.000215926
0.000423309
-3.1736e-05
-0.000391573
-0.000147113
0.00119689
-0.00104977
0.000542842
-0.000463713
-7.91293e-05
0.000264605
0.00117851
-0.00144312
-0.000146282
0.000691843
-0.000545562
-0.000341024
0.000491319
-0.000150295
-0.000110516
0.000513655
-0.000403139
-3.85726e-05
0.000269445
-0.000230872
-0.000237222
0.00145347
-0.00121625
0.00119853
-3.48634e-05
-0.00116367
0.00106968
0.000435222
-0.0015049
0.000470703
-3.11696e-05
-0.000439533
0.000709634
-0.000118882
-0.000590752
-0.000177914
0.00111573
-0.000937818
0.000276827
0.000985376
-0.0012622
0.000604691
-0.000532732
-7.19593e-05
-5.38251e-05
0.00134444
-0.00129062
-0.000120681
0.000449942
-0.000329261
0.000245635
0.000507603
-0.000753238
-0.000179852
0.000348511
-0.000168659
-4.68029e-05
0.000230872
-0.000184069
-0.000540499
0.00158057
-0.00104007
-7.61679e-05
0.00110544
-0.00102927
0.000761367
-9.08586e-05
-0.000670509
0.00129772
-0.00101068
-0.000287045
0.000511492
-2.7248e-05
-0.000484244
0.000908216
0.000677245
-0.00158546
-0.000364315
0.00147893
-0.00111461
0.000651614
-0.000592692
-5.89224e-05
0.000596682
0.000809898
-0.00140658
0.000541014
0.000410615
-0.000951629
1.46328e-05
0.000232871
-0.000247504
-0.000109069
0.000377083
-0.000268014
-4.7822e-05
0.000184069
-0.000136247
-0.000723313
0.00164302
-0.000919706
0.000543167
-2.12248e-05
-0.000521942
6.40864e-05
0.00102432
-0.00108841
0.0013596
-0.000503886
-0.000855717
0.00079156
-6.17626e-05
-0.000729798
0.000824853
0.000796546
-0.0016214
-0.000602953
0.00156464
-0.000961686
0.00068355
-0.000639703
-4.38468e-05
0.000760608
0.000721315
-0.00148192
-7.59915e-05
0.000307431
-0.00023144
0.000198669
0.000170454
-0.000369123
0.000684955
0.000411116
-0.00109607
-3.94172e-05
0.000136247
-9.68301e-05
-0.000813316
0.0016704
-0.000857082
0.000565789
-1.45354e-05
-0.000551253
0.000810022
0.000826625
-0.00163665
0.000220583
0.000892645
-0.00111323
0.000805231
-3.1841e-05
-0.00077339
-0.000721183
0.00138348
-0.000662296
0.000811377
0.000711564
-0.00152294
0.000701466
-0.000674032
-2.74337e-05
-0.000750691
0.00160444
-0.000853754
0.000333189
0.00017512
-0.000508309
0.000716542
0.000475154
-0.0011917
-2.85572e-05
0.000253898
-0.000225341
-0.000831378
0.00167846
-0.000847086
-2.2458e-05
9.68301e-05
-7.43722e-05
0.000807531
-2.72228e-06
-0.000804809
0.000366088
0.000738002
-0.00110409
0.000578687
-7.60873e-06
-0.000571078
0.000849667
0.00078724
-0.00163691
-0.00137652
0.000655332
-0.000821381
0.00161932
-0.000797937
0.000705873
-0.000696485
-9.38775e-06
0.00078698
0.00075258
-0.00153956
2.23311e-05
0.000226596
-0.000248927
0.000400431
0.000239668
-0.000640098
0.000675539
0.000572187
-0.00124773
-1.25556e-06
7.43722e-05
-7.31166e-05
-0.000776788
0.00168003
-0.000903247
0.000950875
0.000660706
-0.00161158
0.000580466
-2.04888e-07
-0.000580261
0.00078853
3.09521e-05
-0.000819482
0.000475733
0.000584816
-0.00106055
0.000686032
0.000846086
-0.00153212
0.000614564
-0.00134046
0.000725897
0.000699208
-0.000709337
1.01296e-05
-0.000832949
0.00161947
-0.000786518
0.000563834
0.000704551
-0.00126839
6.45292e-05
0.000230667
-0.000295197
0.000398095
0.000350663
-0.000748758
1.82598e-05
7.31166e-05
-9.13764e-05
-0.000595939
0.00164406
-0.00104812
0.000532836
0.00044724
-0.000980076
0.000727967
7.74709e-05
-0.000805438
0.000570132
8.27658e-06
-0.000578408
0.00109646
0.000424701
-0.00152116
0.000678385
-0.000709194
3.08083e-05
-0.000740815
0.00159835
-0.000857533
0.000545102
-0.00126268
0.000717578
0.000515124
0.000978712
-0.00149384
8.97413e-05
0.000263178
-0.00035292
0.000410559
0.000849999
-0.00126056
0.000339414
0.000487139
-0.000826553
0.00153642
-0.000288227
-0.00124819
3.20182e-05
9.13764e-05
-0.000123395
-0.000488298
0.00151984
-0.00103154
0.000627242
0.00012975
-0.000756992
0.0005476
1.72616e-05
-0.000564861
0.000516849
0.000337136
-0.000853984
0.000631723
-0.000686614
5.48918e-05
0.000107023
0.00126082
-0.00136784
0.000521449
-0.00112259
0.000601141
0.000233176
0.000980842
-0.00121402
0.00025385
0.000621229
-0.000875079
9.56989e-05
0.000314278
-0.000409977
0.00135983
7.61712e-05
-0.001436
0.000260338
0.00112967
-0.00139001
3.86418e-05
0.000123395
-0.000162036
-0.000111637
0.00136775
-0.00125611
0.00050997
2.65666e-05
-0.000536536
0.000502685
0.000173348
-0.000676034
0.000410076
0.000276304
-0.00068638
-0.000220339
0.00139883
-0.00117849
0.000556865
-0.000637483
8.06181e-05
0.0006007
-0.00092282
0.00032212
0.000173638
0.000730409
-0.000904047
1.99314e-05
0.00108698
-0.00110691
0.00114341
0.00043095
-0.00157436
8.61557e-05
0.000372159
-0.000458315
-3.09895e-05
0.00126341
-0.00123242
0.000292592
0.00115523
-0.00144782
3.78175e-05
0.000162036
-0.000199854
0.000222584
0.000278445
-0.000501029
-0.000308969
0.00117209
-0.00086312
0.00037622
0.000193694
-0.000569915
0.000455918
3.54191e-05
-0.000491337
0.000464134
-0.000564024
9.98894e-05
-0.000519131
0.0015047
-0.000985564
6.71533e-05
0.000426671
-0.000493825
-0.000211995
0.00116283
-0.00095083
9.54501e-05
0.000811889
-0.000907339
0.000956908
0.000686257
-0.00164316
3.16435e-05
0.000199854
-0.000231497
-0.000326203
0.00137207
-0.00104586
0.000617453
0.000949966
-0.00156742
-0.000631465
0.00136098
-0.000729512
-2.39154e-05
0.000380653
-0.000356737
0.000272145
0.000179514
-0.00045166
0.000391448
4.08145e-05
-0.000432262
-0.000725066
0.00155644
-0.00083137
0.000370329
-0.000473901
0.000103572
-0.000421755
0.00119868
-0.000776924
5.54269e-07
0.000863943
-0.000864497
4.57465e-05
0.000471344
-0.00051709
0.000837114
0.000838551
-0.00167566
-0.000570871
0.001438
-0.00086713
2.24812e-05
0.000231497
-0.000253979
0.000806051
0.000821948
-0.001628
-0.000788002
0.00147498
-0.00068698
0.000328691
3.95142e-05
-0.000368205
-0.00026276
0.000565672
-0.000302912
0.000211636
0.000129572
-0.000341208
0.000294387
-0.00038173
8.73435e-05
-0.000861328
0.00157625
-0.000714923
-0.000587009
0.0011949
-0.000607893
-0.000111227
0.000885833
-0.000774606
0.000781245
0.000921853
-0.0017031
2.55173e-05
0.000504166
-0.000529683
0.00089442
0.000769801
-0.00166422
1.29245e-05
0.000253979
-0.000266903
-0.000744881
0.00146052
-0.000715642
0.000206749
5.2597e-05
-0.000259346
-0.000835697
0.00154518
-0.000709482
-0.000434585
0.000771019
-0.000336434
0.000280861
2.95809e-05
-0.000310442
-0.000936729
0.00158003
-0.000643296
0.000252158
-0.000304997
5.28383e-05
-2.1851e-05
-8.04262e-05
0.000102277
0.000785963
0.000948123
-0.00173409
-9.47506e-06
-0.000153656
0.000163131
7.56066e-06
0.000525551
-0.000533112
-0.000224541
0.000874405
-0.000649863
-0.000702585
0.00115478
-0.000452192
-0.000865103
0.0014568
-0.000591694
0.000917135
0.000778245
-0.00169538
4.13166e-06
0.000266903
-0.000271035
0.000106541
-0.000128132
2.15904e-05
-0.000522634
0.000946414
-0.00042378
0.000257604
1.243e-05
-0.000270034
-0.000812612
0.00159546
-0.000782845
0.000256113
-3.39415e-05
-0.000222171
-0.000953
0.00156651
-0.00061351
0.0002524
-0.000259855
7.45554e-06
-0.000756052
0.00107473
-0.000318683
0.000847281
0.000899402
-0.00174668
-0.000317224
0.00082664
-0.000509416
-8.05503e-06
0.000536798
-0.000528743
8.60289e-05
-9.78793e-05
1.18504e-05
-0.000923213
0.00142686
-0.000503649
0.000886805
0.000843554
-0.00173036
-3.68662e-06
0.000271035
-0.000267348
-0.00072292
0.00163467
-0.000911751
-7.44319e-05
5.25809e-05
0.000262578
-7.12645e-06
-0.000255452
-0.000532803
0.00108124
-0.000548435
0.000346743
-0.000109354
-0.000237389
-4.39796e-06
-7.00468e-05
7.44447e-05
-3.30024e-06
-6.42234e-05
6.75237e-05
-0.000859526
0.00151807
-0.000658547
0.000293797
-0.00025541
-3.83863e-05
-2.55677e-05
0.000539789
-0.000514221
-0.000371212
0.000743604
-0.000372392
0.000944071
-0.000232453
-0.000711618
7.60758e-06
4.99571e-05
-5.75647e-05
-7.03103e-05
-1.61552e-05
8.64655e-05
0.000991441
0.000694305
-0.00168575
-6.41079e-05
6.08076e-05
-1.10457e-05
0.000267348
-0.000256302
-0.000904564
0.00135814
-0.000453578
4.0539e-05
-8.87562e-05
4.82172e-05
0.000755242
0.000975121
-0.00173036
0.000461177
-0.000161066
-0.000300111
-2.56355e-06
-3.68322e-05
3.93958e-05
-0.000474489
0.00117507
-0.000700577
0.000293838
-2.34169e-05
-0.000270421
-0.000587829
0.00166699
-0.00107916
0.000364765
-0.000290385
-7.4379e-05
-3.24296e-06
-3.38828e-05
3.71258e-05
5.31884e-05
-6.24094e-05
9.22101e-06
-0.000560531
0.00138817
-0.000827635
0.00121257
0.000315899
-0.00152846
-8.11023e-05
1.07921e-05
-0.000370874
0.00063066
-0.000259786
0.000757472
-0.000205326
-0.000552146
4.77517e-05
-4.03006e-05
-7.45107e-06
-1.64011e-05
1.8858e-05
-2.45688e-06
-4.6489e-05
0.000532127
-0.000485638
0.000473181
0.00116579
-0.00163897
-1.89991e-05
1.64355e-05
-1.79056e-05
0.000256302
-0.000238397
-0.00072962
0.00122077
-0.000491151
-0.000373326
0.00123067
-0.000857344
-0.000367461
0.00164373
-0.00127627
0.0003448
-3.43495e-05
-0.000310451
0.000580177
-0.000179809
-0.000400369
-9.059e-05
0.00116919
-0.0010786
5.8884e-06
-4.08313e-05
3.49429e-05
-5.51297e-06
-1.4463e-05
1.9976e-05
0.000451451
-0.000358426
-9.30253e-05
-2.30061e-05
-1.35972e-06
2.43658e-05
0.00143984
-0.000142215
-0.00129763
-6.58037e-05
0.000509357
-0.000443553
-0.000306671
0.000498056
-0.000191385
0.000531693
-0.000277689
-0.000254004
-4.0384e-06
4.0384e-06
1.58054e-05
-1.65044e-05
6.98957e-07
1.76499e-05
-1.24282e-06
-1.64071e-05
8.86204e-05
0.00138353
-0.00147215
3.36642e-05
7.20066e-06
-4.08649e-05
0.000104577
-4.32813e-05
-6.12955e-05
-2.37192e-05
0.000238397
-0.000214678
-0.000341552
0.000998869
-0.000657317
0.000686116
-0.000167571
-0.000518545
0.000403476
-3.79949e-05
-0.000365481
-5.17067e-06
5.17067e-06
-8.09885e-05
0.00153171
-0.00145072
-0.000273476
0.0012656
-0.000992128
-3.58892e-06
3.58892e-06
0.000538235
-0.000444726
-9.35086e-05
-1.0162e-06
-5.17067e-06
6.18687e-06
-2.74515e-05
-5.36508e-05
-1.97254e-06
-3.58892e-06
5.56145e-06
0.000400854
0.000909555
-0.00131041
0.000157409
-0.000168149
1.07398e-05
0.00032628
0.000126258
-0.000452537
-0.00018139
0.000363541
-0.000182151
-7.74823e-05
0.000471431
-0.000393949
0.00161683
-0.00055648
-0.00106035
3.72999e-06
-3.72999e-06
-3.76535e-06
3.76535e-06
4.12199e-05
1.26401e-06
-4.24839e-05
1.66589e-05
-1.15222e-06
-1.55067e-05
-2.78777e-05
0.000214678
-0.0001868
3.7055e-06
-1.96184e-05
1.59129e-05
-0.000319201
0.00156681
-0.00124761
0.000169042
0.000737787
-0.000906829
-5.04416e-05
0.00023071
-0.000180269
0.000766936
-0.00013506
-0.000631876
-4.75229e-05
6.13396e-05
-1.38166e-05
0.000223059
0.00135607
-0.00157913
5.12779e-05
5.04918e-05
-0.00010177
-0.000184278
0.000299667
-0.000115389
-0.000147245
0.00125712
-0.00110987
0.000219313
-0.000180569
-3.87443e-05
0.00045899
-3.48439e-05
-0.000424146
0.000612297
-0.0005323
-7.99975e-05
0.000737897
0.000713388
-0.00145129
8.8747e-05
-3.74691e-05
-0.000138971
-4.52494e-05
0.000184221
0.000210359
0.000457153
-0.000667512
5.22344e-06
-5.27464e-05
-2.0792e-05
0.000251663
-0.000230871
0.00169991
-0.000797992
-0.000901922
3.72605e-05
1.53764e-06
-3.87981e-05
-7.419e-05
0.000422981
-0.000348791
-1.32884e-05
5.75315e-05
-4.42431e-05
0.00059702
0.000537095
-0.00113412
-0.000172535
0.000170098
2.43684e-06
-0.000639564
0.00167811
-0.00103855
-2.90323e-05
0.0001868
-0.000157768
-8.80067e-05
-2.99354e-05
0.000117942
0.000504143
-2.68513e-05
-0.000477292
1.50341e-05
0.00118221
-0.00119725
-4.03794e-06
0.000139259
-0.000135221
0.000823115
-9.73553e-05
-0.000725759
0.000494117
0.00114862
-0.00164274
0.000883198
0.000630342
-0.00151354
1.61444e-05
-1.776e-05
1.61553e-06
0.00066736
-0.00060755
-5.98099e-05
-1.714e-05
0.000165238
-0.000148098
-4.07196e-06
4.07196e-06
-3.57572e-07
-5.56145e-06
5.91903e-06
-2.83512e-07
5.05713e-05
-5.02878e-05
-2.68729e-05
2.65893e-05
0.00014398
0.000182869
-0.000326849
4.12953e-05
5.4815e-06
-4.67768e-05
4.97952e-05
-5.73296e-06
-4.40623e-05
-0.000139281
0.000135243
0.001719
-0.00089879
-0.000820215
-5.37794e-05
0.000373594
-0.000319815
9.20885e-05
-0.000123637
3.15482e-05
0.000202528
-0.000857227
0.000654699
7.23253e-05
-2.71527e-05
-4.51726e-05
0.000820944
0.000459226
-0.00128017
3.49458e-07
-5.68749e-06
5.33803e-06
-0.000817083
0.00171279
-0.000895712
-2.48032e-05
0.000157768
-0.000132964
9.9033e-05
-0.000116173
0.000193171
0.00105503
-0.0012482
0.000537102
-1.75542e-05
-0.000519548
0.000862265
-6.45992e-05
-0.000797666
0.000683915
0.000968492
-0.00165241
3.13923e-06
-1.9008e-06
-1.23844e-06
4.36087e-06
0.000145661
-0.000150022
6.58569e-05
6.20202e-05
-0.000127877
0.000704906
-0.000664507
-4.0399e-05
-0.000158323
-1.43335e-05
0.000172657
0.000916374
0.000629
-0.00154537
-2.15468e-05
0.000333168
-0.000311622
9.90651e-05
-0.000103404
4.33856e-06
-1.93068e-06
-1.57918e-05
1.77224e-05
0.000268935
-0.000994396
0.000725462
0.000277658
0.000172413
-0.000450071
-3.49421e-06
3.49421e-06
0.000103836
-1.78067e-05
0.00171638
-0.000918796
-0.00079758
3.38219e-06
1.46988e-06
-4.85207e-06
-1.33533e-05
0.000132964
-0.000119611
1.53924e-05
-1.12553e-06
-1.42669e-05
5.93282e-05
4.52838e-05
-0.000104612
-4.0242e-05
2.79978e-05
1.22442e-05
-8.01902e-06
1.10638e-05
-3.04477e-06
0.00088454
0.000477789
-0.00136233
4.91757e-06
-4.91757e-06
-0.000896161
0.00171125
-0.000815086
1.32425e-05
-1.44801e-05
1.23755e-06
0.000802381
0.000836871
-0.00163925
2.46036e-05
4.85295e-05
-7.31331e-05
1.45529e-05
-5.52747e-08
-1.44976e-05
0.000887914
-3.58596e-05
-0.000852054
0.000559947
-8.78508e-06
-0.000551162
0.000356965
0.000898446
-0.00125541
-2.61735e-05
0.000124217
-9.80438e-05
-0.000125749
0.000141979
-1.62298e-05
4.82603e-05
4.03442e-05
-8.86045e-05
-5.04767e-05
3.9495e-05
1.09817e-05
0.000729106
-0.000707714
-2.13922e-05
0.000869732
0.000682021
-0.00155175
0.000122097
-0.000117736
0.000360387
0.000220182
-0.000580569
0.00037924
-0.00108316
0.000703921
3.33166e-05
1.02438e-06
-3.4341e-05
1.33211e-05
-2.66095e-05
-1.02688e-05
1.07018e-05
-4.3301e-07
2.60222e-05
9.3401e-06
-3.53623e-05
1.57239e-05
0.00031053
-0.000326254
-4.83652e-05
7.99331e-06
4.03719e-05
3.34359e-05
8.25933e-05
-0.000116029
1.61809e-05
6.31073e-05
-7.92882e-05
5.0892e-05
5.58444e-06
-5.64765e-05
-8.37836e-05
0.000292838
-0.000209054
0.00170126
-0.000853261
-0.000848
3.51139e-05
3.92291e-05
-7.4343e-05
-1.41889e-05
4.2037e-05
-2.78481e-05
5.25826e-06
2.225e-05
-2.75082e-05
-0.000103453
0.000119633
3.53402e-05
-3.28839e-05
-2.4563e-06
7.97207e-05
-4.29854e-05
-3.67353e-05
-4.53188e-06
1.48444e-05
-1.03125e-05
-7.38336e-06
-2.0453e-05
2.78364e-05
-1.02424e-07
-2.94046e-05
2.9507e-05
0.000863353
0.000545305
-0.00140866
1.09162e-06
0.000119611
-0.000120703
-7.10555e-06
-5.09338e-05
5.80394e-05
2.88555e-05
-5.2718e-06
-2.35837e-05
-6.65322e-05
5.72849e-05
9.24731e-06
-0.000220584
0.0001368
-0.000903681
0.00169875
-0.000795067
6.50226e-05
-2.99087e-05
0.000572554
-7.17794e-07
-0.000571836
0.00048437
0.000737047
-0.00122142
2.64208e-05
2.4347e-06
-2.03656e-05
2.72265e-05
-6.86097e-06
-3.70407e-06
6.99481e-05
-6.6244e-05
8.68823e-06
2.18215e-05
-3.05097e-05
0.000862212
0.000755589
-0.0016178
4.45145e-07
1.08988e-08
-4.56044e-07
-1.27149e-05
1.19873e-05
7.27593e-07
8.43017e-06
2.49932e-05
-3.34233e-05
5.41997e-06
-5.41997e-06
-8.03883e-05
4.14331e-05
3.89552e-05
-1.03197e-05
2.23907e-07
1.00958e-05
5.32731e-05
-9.20039e-05
3.87308e-05
0.000876515
2.6682e-06
-0.000879183
3.53943e-06
-1.08309e-07
-3.43113e-06
-4.17975e-06
4.17975e-06
6.51022e-05
3.46306e-06
-6.85652e-05
-5.15468e-07
1.97287e-06
-1.4574e-06
-2.60821e-05
3.06758e-06
2.30145e-05
-2.54527e-05
2.30385e-05
2.41429e-06
0.000736454
0.000793916
-0.00153037
5.41997e-06
-5.52239e-06
-2.71152e-05
0.000743573
-0.000740811
-2.76182e-06
-1.15406e-05
2.54414e-06
8.99647e-06
0.000526641
-0.0011231
0.000596459
6.79545e-06
-6.79545e-06
5.00513e-05
0.000310892
-0.000360943
0.00169706
-0.000726361
-0.000970696
0.00015049
-0.000117055
-0.000125953
-5.36262e-07
0.000126489
-1.44234e-06
1.6511e-06
-2.08763e-07
0.000375937
0.000321622