/*--------------------------------*- C++ -*----------------------------------*\
  =========                 |
  \\      /  F ield         | OpenFOAM: The Open Source CFD Toolbox
   \\    /   O peration     | Website:  https://openfoam.org
    \\  /    A nd           | Version:  8
     \\/     M anipulation  |
\*---------------------------------------------------------------------------*/
FoamFile
{
    version     2.0;
    format      ascii;
    class       volScalarField;
    location    "10";
    object      p;
}
// * * * * * * * * * * * * * * * * * * * * * * * * * * * * * * * * * * * * * //

dimensions      [0 2 -2 0 0 0 0];

internalField   nonuniform List<scalar> 
18474
(
0.072695585
0.07552716
0.077532831
0.080670821
0.08362535
0.087039453
0.090415518
0.093922001
0.097358422
0.10073723
0.10396879
0.10703044
0.10988199
0.11250741
0.11489387
0.11703998
0.11895061
0.12063676
0.12211331
0.12339769
0.12450858
0.12546486
0.12628488
0.072050722
0.075350412
0.077149484
0.080515171
0.083375832
0.086894915
0.090249628
0.093813895
0.097264292
0.10068639
0.10395013
0.1070564
0.10995241
0.11262718
0.11506284
0.11725795
0.11921539
0.12094549
0.12246241
0.12378334
0.12492687
0.12591201
0.1267573
0.070787591
0.074470215
0.076207313
0.079822025
0.082660722
0.086336045
0.089725835
0.093411175
0.096942907
0.10049026
0.10387416
0.10712185
0.11016085
0.11298308
0.11556262
0.11789828
0.11998986
0.12184674
0.12348183
0.12491185
0.12615512
0.12723078
0.12815763
0.069227952
0.073250108
0.074967182
0.078822585
0.081671039
0.085521627
0.088974711
0.09281831
0.096475931
0.10020381
0.10376408
0.10721326
0.11044868
0.11347643
0.11625967
0.11879626
0.12108116
0.12312176
0.12492873
0.12651778
0.12790658
0.12911434
0.13016013
0.067381513
0.071739683
0.073448855
0.077546929
0.080418923
0.084459277
0.087997893
0.092034974
0.095855724
0.099801848
0.10358141
0.10728042
0.11076406
0.1140562
0.11710533
0.11990646
0.12244814
0.12473472
0.12677356
0.1285786
0.13016635
0.13155577
0.132766
0.065284002
0.069958871
0.071668356
0.0760033
0.078905654
0.083146011
0.086792325
0.09104269
0.095046861
0.099239816
0.10326887
0.10724815
0.11104702
0.11466565
0.11804448
0.12117571
0.12404098
0.12664031
0.12897635
0.13106025
0.1329065
0.13453325
0.13595935
0.063006847
0.067972027
0.069680531
0.074237142
0.077171083
0.08161171
0.085368113
0.089832051
0.094028337
0.09848458
0.10279199
0.10710203
0.11125589
0.1152307
0.11899086
0.12251271
0.12576608
0.1287448
0.13144486
0.13387322
0.1360412
0.13796532
0.13966346
0.060604432
0.065831064
0.067529638
0.072289374
0.075251637
0.079875436
0.083728919
0.088394226
0.092777297
0.097495852
0.10208632
0.10673726
0.11123911
0.11564691
0.1198423
0.12381439
0.12751786
0.13094209
0.13407452
0.13691624
0.13947385
0.14176101
0.14379364
0.058127088
0.063585318
0.065260214
0.070199803
0.073175885
0.077954742
0.081883221
0.086725313
0.091275927
0.096241714
0.10111191
0.10610757
0.11100919
0.11585357
0.12050452
0.12496712
0.12917634
0.13310777
0.13674018
0.14006554
0.14308395
0.14580451
0.14823969
0.055623736
0.061281264
0.062921669
0.068012455
0.070976899
0.075875926
0.079847803
0.084830576
0.089515778
0.094697666
0.099821876
0.10514477
0.11042662
0.11569832
0.12087057
0.12584762
0.1306069
0.13510107
0.13929599
0.14317392
0.14672511
0.14995224
0.15286241
0.053137721
0.058963361
0.060557865
0.065765779
0.068690121
0.073669996
0.077646477
0.082725081
0.087500249
0.092853035
0.098189877
0.10380515
0.10943996
0.11514571
0.12077185
0.12633642
0.13166803
0.13677048
0.14158316
0.14607677
0.15023057
0.15403752
0.15749723
0.050707746
0.05667145
0.058206259
0.063496692
0.066351638
0.071371362
0.07530972
0.080433848
0.08524573
0.090712953
0.096206846
0.10206195
0.10800901
0.11410417
0.12020973
0.12626379
0.13223523
0.13796375
0.14343724
0.14860031
0.15341899
0.15787526
0.16195771
0.048366068
0.054437577
0.055899541
0.061240374
0.063997359
0.069016988
0.072873595
0.077990949
0.082781254
0.088298784
0.093882555
0.099910266
0.1061049
0.1125415
0.11906767
0.12564368
0.13214116
0.13855022
0.14469757
0.15056897
0.15610412
0.16126967
0.16604231
0.046139495
0.052291058
0.053666937
0.059028789
0.061661617
0.066644445
0.070377635
0.075437318
0.080146617
0.085646817
0.091245796
0.097367592
0.10373034
0.11043054
0.11731703
0.12434425
0.13139935
0.13837848
0.14523162
0.15182002
0.15810511
0.16402721
0.16954535
0.044047619
0.05025384
0.051532075
0.056889181
0.059375635
0.064289801
0.067862362
0.072817806
0.077389329
0.082805386
0.088342352
0.094473287
0.10091412
0.10778683
0.11494416
0.12235073
0.12988191
0.13744646
0.14492515
0.15223481
0.15927553
0.16597095
0.17227179
0.042102444
0.048340092
0.049512562
0.0548434
0.057166366
0.061985782
0.065366819
0.070177969
0.074560845
0.079830717
0.085230755
0.091285004
0.097708367
0.10465276
0.1119781
0.11966249
0.1275838
0.13564363
0.14371688
0.15169225
0.15945577
0.16694793
0.17403653
0.040310242
0.046558594
0.047620667
0.052907778
0.055055762
0.059760357
0.062926395
0.067561008
0.071712653
0.07678217
0.08197695
0.087872973
0.094184012
0.10109521
0.10847733
0.11632657
0.12452686
0.13298298
0.1415647
0.15014447
0.15859393
0.16679635
0.17469509
0.038672425
0.044913225
0.045863709
0.051093276
0.053060461
0.057635865
0.060571244
0.065005326
0.068892859
0.073717769
0.078648838
0.084313722
0.090423868
0.097199733
0.10452516
0.11241936
0.12077702
0.12951063
0.13848869
0.14757868
0.15663852
0.16554976
0.17418754
0.037186314
0.043403605
0.04424461
0.049405949
0.051191835
0.055628723
0.058325348
0.06254286
0.066143544
0.070690411
0.075311227
0.08068373
0.086515114
0.093061832
0.10022187
0.10804094
0.11642903
0.12531223
0.13456313
0.14404776
0.15361771
0.16313457
0.17245294
0.035846122
0.042026005
0.042762674
0.047847625
0.04945644
0.053749667
0.05620634
0.060198391
0.063499316
0.067745472
0.072022268
0.077054557
0.08254308
0.088779535
0.09567598
0.10330684
0.11160054
0.12050177
0.12989276
0.13964245
0.14959783
0.15961062
0.16952039
0.034643782
0.040774421
0.041414282
0.046416805
0.047856556
0.052004338
0.05422564
0.057989385
0.060986407
0.064919058
0.068830454
0.073488343
0.078584973
0.084445202
0.090994228
0.098335867
0.10641907
0.11521068
0.12460732
0.13448673
0.14469636
0.15508204
0.16547096
0.033569897
0.039641007
0.040193784
0.045109285
0.046391139
0.05039412
0.052389478
0.055926917
0.058623557
0.062238606
0.06577484
0.070037406
0.074708698
0.080143436
0.086278544
0.093246498
0.10101767
0.10958348
0.11885856
0.12873425
0.13906354
0.14969077
0.16043457
0.032613933
0.038617754
0.039093677
0.043919456
0.045056003
0.04891698
0.050698814
0.05401568
0.056420996
0.05972119
0.062881764
0.066739223
0.070965301
0.075940535
0.08161185
0.088138518
0.095512264
0.10375017
0.11278753
0.12253295
0.13284934
0.1435843
0.15455329
0.12702094
0.12769976
0.12831113
0.12885689
0.12933956
0.12976223
0.13012843
0.13044203
0.13070708
0.13092775
0.13110822
0.13125259
0.13136484
0.13144874
0.13150786
0.1315455
0.13156469
0.1315682
0.13155849
0.13153778
0.13150802
0.13147089
0.13142782
0.13138004
0.13132855
0.13127428
0.13121815
0.12751656
0.12821724
0.12884864
0.12941259
0.12991161
0.1303488
0.13072777
0.13105245
0.13132701
0.13155572
0.13174289
0.13189275
0.1320094
0.13209672
0.13215839
0.13219782
0.13221818
0.13222221
0.13221174
0.13219079
0.13216045
0.13212248
0.13207831
0.1320292
0.13197621
0.13192033
0.13186255
0.12899358
0.1297687
0.1304708
0.13110152
0.13166323
0.132159
0.13259242
0.13296749
0.13328847
0.13355981
0.13378606
0.13397139
0.13412041
0.13423704
0.13432525
0.13438812
0.13443005
0.13445353
0.13446045
0.13445266
0.1344353
0.13440996
0.13437689
0.13433744
0.13429285
0.13424428
0.13419285
0.13110793
0.13199136
0.13279595
0.13352294
0.13417442
0.13475331
0.13526316
0.13570805
0.13609266
0.13642059
0.13669833
0.13692984
0.13711845
0.13727105
0.13739059
0.13748155
0.1375459
0.13759026
0.13761601
0.13762525
0.13761635
0.13759882
0.13757536
0.13754529
0.1375086
0.13746651
0.13742039
0.13386914
0.13490384
0.13585236
0.13671541
0.13749462
0.13819266
0.138813
0.13935972
0.13983749
0.1402518
0.14060564
0.14090695
0.14115993
0.14136844
0.14153802
0.14167412
0.14178019
0.14185926
0.14191499
0.14195271
0.14197403
0.141979
0.14196588
0.1419461
0.14192143
0.14189165
0.14185687
0.13726732
0.13850226
0.13964206
0.1406865
0.1416365
0.14249426
0.14326298
0.14394673
0.14455019
0.14507863
0.1455377
0.14593379
0.14626917
0.14655455
0.14679298
0.1469876
0.14714619
0.14727297
0.14737143
0.14744425
0.14749551
0.14752986
0.1475494
0.1475528
0.14754026
0.14751922
0.1474937
0.14123089
0.14272079
0.14410527
0.14538278
0.14655315
0.1476178
0.14857944
0.14944191
0.15020999
0.15088911
0.15148514
0.15200454
0.15245437
0.15283953
0.15316583
0.15344285
0.15367317
0.15386097
0.15401444
0.15413729
0.15423261
0.1543037
0.15435392
0.15438749
0.15440671
0.15441126
0.15440395
0.14568207
0.14748933
0.14918013
0.15075102
0.15220016
0.15352777
0.15473568
0.15582725
0.15680708
0.15768078
0.15845467
0.15913557
0.15973058
0.16024726
0.16069379
0.16107382
0.16139653
0.1616702
0.16189697
0.16208239
0.16223412
0.16235587
0.1624507
0.1625219
0.16257313
0.16260729
0.16262748
0.15051725
0.15271194
0.15477914
0.15671273
0.15850851
0.16016481
0.16168207
0.16306273
0.16431091
0.1654321
0.16643292
0.16732078
0.16810359
0.16878947
0.16938676
0.16990414
0.1703505
0.17072865
0.17105074
0.1713235
0.17154932
0.17173436
0.17188582
0.17200746
0.17210226
0.17217421
0.17222695
0.15560292
0.15826228
0.16078434
0.16315935
0.16537976
0.1674412
0.16934193
0.17108281
0.17266697
0.17409945
0.17538685
0.176537
0.17755859
0.17846084
0.17925319
0.17994502
0.18054586
0.18106569
0.18151251
0.18189102
0.18221377
0.18248639
0.18271241
0.18289765
0.18304918
0.18317093
0.18326654
0.16077845
0.16398552
0.16704836
0.1699524
0.17268558
0.17523965
0.17760968
0.17979406
0.18179416
0.18361394
0.18525958
0.18673901
0.18806152
0.1892373
0.19027711
0.19119192
0.19199259
0.19268968
0.19329387
0.19381616
0.19426312
0.19464253
0.19496586
0.19523814
0.19546415
0.19564955
0.19580213
0.16585827
0.16969924
0.17339409
0.17692209
0.18026519
0.18340989
0.18634672
0.18907037
0.19157939
0.19387578
0.19596459
0.19785335
0.1995516
0.2010703
0.20242144
0.20361756
0.20467139
0.20559549
0.206402
0.20710252
0.20770879
0.20823265
0.20867825
0.20905816
0.20938093
0.20965239
0.209879
0.17063744
0.1751977
0.17961765
0.1838689
0.18792584
0.19176798
0.19537967
0.19875032
0.20187424
0.20475023
0.20738118
0.20977342
0.21193612
0.21388068
0.21562008
0.21716835
0.21854008
0.21975
0.22081261
0.22174186
0.22255087
0.22325233
0.22385913
0.22438153
0.2248249
0.22520462
0.22552642
0.17490144
0.18026022
0.1854952
0.19056897
0.19544654
0.2000986
0.2045013
0.20863684
0.21249345
0.21606509
0.21935106
0.22235529
0.22508572
0.22755346
0.22977207
0.23175685
0.23352419
0.235091
0.23647426
0.2376906
0.23875602
0.23968549
0.24049295
0.24119239
0.24179756
0.24231387
0.24275776
0.17843861
0.18466208
0.19079277
0.19678257
0.20258538
0.20816096
0.21347504
0.21850035
0.22321679
0.22761141
0.23167802
0.23541657
0.23883239
0.24193531
0.24473871
0.24725867
0.24951313
0.25152113
0.2533022
0.25487581
0.25626097
0.25747586
0.2585375
0.25946157
0.26026334
0.26095825
0.2615577
0.1810464
0.18818504
0.19527801
0.20226623
0.20909083
0.21569894
0.22204369
0.22808587
0.23379456
0.23914737
0.2441303
0.24873724
0.25296912
0.25683298
0.26034093
0.26350898
0.26635608
0.26890314
0.27117217
0.27318558
0.2749656
0.27653378
0.27791066
0.27911547
0.28016612
0.28107974
0.28187343
0.18256008
0.19064333
0.19874385
0.20679238
0.21471895
0.22245631
0.22994283
0.23712486
0.24395782
0.25040707
0.25644803
0.26206589
0.2672549
0.27201737
0.27636246
0.28030492
0.28386382
0.28706133
0.28992166
0.29247008
0.29473215
0.29673306
0.29849709
0.30004731
0.30140556
0.30259262
0.30362814
0.18288077
0.19190809
0.20101678
0.21016053
0.21924633
0.22819069
0.23691513
0.24534892
0.25343113
0.26111183
0.26835278
0.27512751
0.28142079
0.28722767
0.2925523
0.29740641
0.30180787
0.30577918
0.30934614
0.31253655
0.31537924
0.31790314
0.32013654
0.32210667
0.32383958
0.32536031
0.32669262
0.18191353
0.19180889
0.20195215
0.21220616
0.22248537
0.23269134
0.24272811
0.25250728
0.26194929
0.27098619
0.27956293
0.28763808
0.29518371
0.3021847
0.3086375
0.3145486
0.31993286
0.32481172
0.32921153
0.33316204
0.33669499
0.33984295
0.34263837
0.34511288
0.34729709
0.3492207
0.35091196
0.17968058
0.19042947
0.20151658
0.21285014
0.22431407
0.23580179
0.24719472
0.25838558
0.26927509
0.2797744
0.28980845
0.2993174
0.30825714
0.31659895
0.32432849
0.33144428
0.33795583
0.34388167
0.34924732
0.35408341
0.35842397
0.3623049
0.36576271
0.36883357
0.37155295
0.37395553
0.37607456
0.17622984
0.18772351
0.19969486
0.2120463
0.22466298
0.23742292
0.25017558
0.26281368
0.27521077
0.28725476
0.29884762
0.30990784
0.32037159
0.33019301
0.33934352
0.34781048
0.35559528
0.36271116
0.36918092
0.37503465
0.38030762
0.38503841
0.38926722
0.39303467
0.39638118
0.39934673
0.40196986
0.17167014
0.18379339
0.19654759
0.20983278
0.22352584
0.2374835
0.25159532
0.2656867
0.27961966
0.29325954
0.30648424
0.31918805
0.33128422
0.34270617
0.35340749
0.3633609
0.37255651
0.38099953
0.38870773
0.39570884
0.402038
0.40773548
0.4128446
0.41741013
0.42147738
0.42509172
0.42829736
0.16613692
0.17875955
0.19216989
0.20627392
0.22094898
0.23605856
0.25144709
0.26695762
0.2824172
0.29767169
0.31257207
0.32698602
0.34080099
0.35392639
0.36629443
0.37785964
0.38859736
0.39850159
0.4075823
0.41586253
0.42337545
0.43016164
0.43626653
0.44173838
0.44662704
0.45098322
0.45485674
0.13115966
0.13109735
0.13103095
0.13096058
0.13088631
0.13080812
0.13072602
0.13064
0.13055006
0.13045618
0.13035837
0.13025663
0.13015094
0.13004132
0.12992776
0.12981025
0.1296888
0.12956341
0.12943408
0.12930081
0.1291636
0.12902245
0.12887738
0.12872837
0.12857544
0.12841859
0.12825783
0.12809315
0.12792458
0.1277521
0.12757574
0.12739551
0.12721147
0.12702382
0.13180244
0.13173848
0.13167039
0.13159829
0.13152225
0.13144226
0.13135831
0.13127041
0.13117853
0.13108268
0.13098284
0.13087901
0.13077119
0.13065937
0.13054355
0.13042372
0.13029989
0.13017206
0.13004022
0.12990437
0.12976452
0.12962066
0.1294728
0.12932094
0.12916508
0.12900524
0.1288414
0.12867359
0.1285018
0.12832603
0.1281463
0.12796263
0.1277751
0.12758393
0.13413834
0.13407951
0.13401612
0.1339483
0.13387611
0.13379955
0.13371861
0.13363329
0.13354357
0.13344946
0.13335094
0.13324801
0.13314067
0.13302891
0.13291273
0.13279212
0.13266709
0.13253763
0.13240374
0.13226543
0.13212269
0.13197552
0.13182393
0.13166792
0.13150749
0.13134265
0.13117339
0.13099974
0.13082168
0.13063923
0.13045239
0.1302612
0.13006574
0.12986622
0.13737038
0.1373155
0.13725557
0.13719078
0.13712121
0.13704687
0.13696774
0.13688382
0.13679509
0.13670154
0.13660316
0.13649994
0.13639188
0.13627897
0.13616121
0.13603859
0.13591111
0.13577877
0.13564156
0.1354995
0.13535258
0.1352008
0.13504416
0.13488267
0.13471634
0.13454517
0.13436916
0.13418833
0.13400268
0.13381222
0.13361697
0.13341697
0.13321232
0.13300324
0.14181739
0.14177243
0.14172094
0.1416633
0.14159981
0.1415307
0.14145607
0.14137592
0.14129024
0.14119901
0.14110221
0.14099983
0.14089185
0.14077826
0.14065907
0.14053426
0.14040383
0.14026777
0.1401261
0.13997879
0.13982587
0.13966732
0.13950314
0.13933336
0.13915796
0.13897696
0.13879036
0.13859817
0.13840041
0.13819707
0.13798818
0.13777378
0.13755401
0.13732909
0.14746357
0.14742815
0.147387
0.14733991
0.14728626
0.14722498
0.14715653
0.14708132
0.14699958
0.14691136
0.14681662
0.14671535
0.14660752
0.14649311
0.14637211
0.14624452
0.14611032
0.14596952
0.14582211
0.14566809
0.14550745
0.14534021
0.14516637
0.14498592
0.14479888
0.14460526
0.14440506
0.14419829
0.14398497
0.14376511
0.14353873
0.14330588
0.14306671
0.1428215
0.15438489
0.15435905
0.15432758
0.15429084
0.15424794
0.1541979
0.15414044
0.15407399
0.15399861
0.15391493
0.15382335
0.15372398
0.1536168
0.15350175
0.15337882
0.15324798
0.15310922
0.15296254
0.15280793
0.15264538
0.15247491
0.15229651
0.15211018
0.15191594
0.15171378
0.15150372
0.15128578
0.15105996
0.15082628
0.15058477
0.15033542
0.15007833
0.14981363
0.14954168
0.16263541
0.16263199
0.16261566
0.16258933
0.16255648
0.16251682
0.16247073
0.16241577
0.16235149
0.16227658
0.16219066
0.16209462
0.16198897
0.16187382
0.1617491
0.16161477
0.16147081
0.1613172
0.16115394
0.16098101
0.16079843
0.16060619
0.1604043
0.16019276
0.15997159
0.15974081
0.15950042
0.15925045
0.15899093
0.15872186
0.15844328
0.15815526
0.15785799
0.15755185
0.17226501
0.17229111
0.17230408
0.17230446
0.17228938
0.17226152
0.17222604
0.17218176
0.17212955
0.17206588
0.17199063
0.1719016
0.17179947
0.17168519
0.17155912
0.17142126
0.17127156
0.17110998
0.17093651
0.17075113
0.17055385
0.17034467
0.1701236
0.16989065
0.16964584
0.16938919
0.16912072
0.16884046
0.16854845
0.16824472
0.16792929
0.16760226
0.16726384
0.16691449
0.18334253
0.18340378
0.18345104
0.18348475
0.18350323
0.18350527
0.1834882
0.18345664
0.1834148
0.18336243
0.18329871
0.18322039
0.1831262
0.18301517
0.18288875
0.1827476
0.18259178
0.18242123
0.18223588
0.18203574
0.18182081
0.18159109
0.18134659
0.18108734
0.18081336
0.18052467
0.18022132
0.17990336
0.17957081
0.17922375
0.1788622
0.17848629
0.17809626
0.17769267
0.19592915
0.19603669
0.19612673
0.19620025
0.19625649
0.1962959
0.19631597
0.19631454
0.19628929
0.19624974
0.1961962
0.19612993
0.19604605
0.19594265
0.19581817
0.19567447
0.19551233
0.19533181
0.1951328
0.1949153
0.19467929
0.19442479
0.19415182
0.19386041
0.1935506
0.19322244
0.19287597
0.19251127
0.1921284
0.19172743
0.19130846
0.1908716
0.19041718
0.18994585
0.21007151
0.21024086
0.21038847
0.21051435
0.21061856
0.21070173
0.21076304
0.21080289
0.21081785
0.21080316
0.21076436
0.21070785
0.21063568
0.21054223
0.21042347
0.21027893
0.21011066
0.20991928
0.20970474
0.20946696
0.20920596
0.20892174
0.20861434
0.20828381
0.20793021
0.20755359
0.20715405
0.20673169
0.2062866
0.20581889
0.2053287
0.20481621
0.20428181
0.20372628
0.22580602
0.22605554
0.22627721
0.22647236
0.22664068
0.22678149
0.22689535
0.22698186
0.22704056
0.22707124
0.22706662
0.22702677
0.22696428
0.22688248
0.22677346
0.22663093
0.22645733
0.22625441
0.22602239
0.22576116
0.22547067
0.22515098
0.22480214
0.22442421
0.22401729
0.22358147
0.22311688
0.22262366
0.22210198
0.22155199
0.2209739
0.22036795
0.21973465
0.21907495
0.2431469
0.24349814
0.24381731
0.24410289
0.244353
0.2445699
0.24475275
0.24490056
0.24501448
0.2450924
0.2451363
0.24513895
0.24509378
0.24502172
0.24492318
0.24478696
0.2446099
0.24439517
0.24414373
0.24385551
0.24353047
0.24316866
0.24277015
0.24233506
0.24186352
0.24135568
0.24081173
0.24023188
0.23961636
0.23896543
0.23827937
0.23755855
0.23680362
0.23601571
0.26208573
0.26256858
0.26300938
0.26340867
0.26376744
0.26408233
0.26435316
0.26458192
0.26476646
0.26490808
0.26500365
0.265056
0.26505987
0.2650022
0.26491473
0.26478893
0.26461079
0.26438426
0.26411136
0.26379224
0.26342682
0.26301514
0.26255735
0.2620536
0.26150408
0.26090902
0.2602687
0.25958342
0.25885352
0.25807939
0.25726143
0.25640018
0.25549649
0.25455171
0.28258077
0.28322788
0.28382358
0.28436895
0.28486129
0.28530147
0.28568907
0.28601919
0.28629665
0.28651868
0.28668584
0.28679457
0.28685002
0.28684056
0.28676444
0.28664972
0.28647393
0.28623649
0.28594049
0.28558647
0.28517436
0.28470421
0.28417621
0.28359059
0.28294763
0.28224768
0.28149113
0.28067843
0.27981009
0.27888663
0.27790868
0.27687697
0.27579263
0.27465731
0.30455305
0.30540684
0.30619931
0.30692599
0.3075881
0.30818572
0.30871657
0.30918135
0.3095752
0.30990142
0.31015853
0.31034653
0.3104605
0.31051085
0.31045947
0.31035917
0.31019041
0.30994422
0.30962404
0.30923108
0.3087654
0.3082271
0.30761645
0.30693379
0.30617954
0.30535421
0.30445835
0.30349264
0.30245778
0.30135456
0.30018384
0.29894672
0.29764464
0.29627966
0.32788765
0.32899471
0.33002492
0.33097795
0.33185349
0.33264423
0.33335579
0.33398349
0.33452732
0.33498367
0.33535463
0.3356385
0.33583525
0.33594016
0.3359636
0.33587679
0.33571823
0.3354643
0.33511803
0.33468111
0.33415374
0.33353604
0.33282838
0.33203123
0.33114518
0.33017094
0.32910928
0.32796112
0.32672773
0.32541038
0.32400799
0.32252549
0.32096315
0.3193236
0.35243452
0.35385052
0.35517356
0.35640181
0.35753361
0.35856738
0.35950124
0.36033093
0.3610584
0.36168095
0.36219516
0.36260291
0.36290189
0.36309097
0.36317391
0.36311608
0.36297522
0.36271842
0.36234697
0.36186275
0.36126622
0.36055769
0.35973779
0.35880729
0.35776651
0.3566167
0.35535952
0.35399583
0.35252714
0.35095509
0.34928137
0.34750785
0.34563706
0.34367238
0.37798814
0.37977356
0.38144761
0.38300769
0.38445095
0.38577459
0.38697672
0.38805571
0.38900498
0.38982788
0.39052013
0.3910776
0.39150321
0.39179394
0.39194526
0.39196573
0.3918447
0.39158646
0.39118769
0.39065047
0.3899751
0.38916184
0.38821222
0.38712661
0.38590622
0.38455239
0.38306666
0.38145085
0.37970694
0.3778371
0.37584368
0.37372941
0.37149758
0.3691524
0.40434536
0.40656812
0.40865851
0.41061297
0.41242775
0.41409902
0.41562316
0.41699764
0.41822023
0.41928347
0.42019053
0.42093629
0.42151731
0.42193473
0.4221862
0.42227136
0.42217976
0.42192824
0.42150387
0.42091153
0.42014953
0.41921921
0.41812168
0.41685822
0.41543043
0.4138402
0.4120897
0.41018137
0.4081179
0.40590224
0.40353762
0.40102764
0.39837662
0.39558989
0.43120798
0.43393868
0.43651381
0.43892849
0.44117773
0.44325656
0.44516012
0.44688392
0.44842445
0.44977835
0.4509393
0.4519074
0.45267821
0.45324952
0.45362011
0.45378937
0.4537406
0.45350074
0.45305438
0.45240198
0.45154453
0.45048324
0.44921943
0.44775481
0.44609153
0.44423213
0.44217953
0.43993701
0.43750821
0.43489708
0.43210796
0.4291456
0.4260156
0.42272472
0.45838231
0.46169797
0.46483255
0.46777954
0.47053235
0.47308446
0.4754296
0.47756184
0.47947568
0.48116624
0.48262888
0.48385915
0.48485336
0.48560847
0.48612141
0.4863906
0.48641498
0.48619255
0.48572288
0.48500637
0.48404369
0.48283596
0.48138489
0.47969279
0.47776247
0.47559729
0.4732011
0.47057824
0.4677335
0.46467213
0.46139981
0.45792279
0.45424823
0.45038463
0.12683096
0.12662572
0.12640176
0.12615721
0.12588986
0.12559719
0.12527653
0.12492497
0.12453939
0.12411644
0.12365255
0.1231439
0.12258646
0.121976
0.12130805
0.12057805
0.11978129
0.11891306
0.1179687
0.11694363
0.11583358
0.11463458
0.11334321
0.11195667
0.11047295
0.10889099
0.10721079
0.12738753
0.12717867
0.12695092
0.12670238
0.12643079
0.12613363
0.12580813
0.12545134
0.12506006
0.12463088
0.12416012
0.1236439
0.1230781
0.1224584
0.12178028
0.12103904
0.12022994
0.11934821
0.11838915
0.11734821
0.11622108
0.11500386
0.11369316
0.11228628
0.11078131
0.10917735
0.10747447
0.12966092
0.1294422
0.12920329
0.12894217
0.12865641
0.12834337
0.12800012
0.12762355
0.1272103
0.12675675
0.12625907
0.12571316
0.12511472
0.12445919
0.12374184
0.12295773
0.12210192
0.12116942
0.12015535
0.11905498
0.11786387
0.11657802
0.11519401
0.11370917
0.11212171
0.1104309
0.10863709
0.13278792
0.13255834
0.13230731
0.13203256
0.13173151
0.13140124
0.1310386
0.13064015
0.13020224
0.12972089
0.12919189
0.12861078
0.1279728
0.12727298
0.12650612
0.12566686
0.12474982
0.12374962
0.12266102
0.12147898
0.12019884
0.11881645
0.11732837
0.115732
0.11402577
0.11220933
0.11028353
0.13709707
0.13684924
0.13657777
0.13628013
0.13595344
0.13559448
0.13519972
0.13476538
0.13428737
0.13376129
0.13318247
0.13254597
0.13184654
0.13107867
0.13023662
0.12931449
0.1283064
0.12720649
0.1260091
0.12470883
0.12330075
0.12178059
0.12014489
0.11839122
0.11651835
0.1145265
0.11241717
0.1425681
0.14229697
0.14199943
0.14167262
0.14131324
0.14091761
0.14048174
0.14000131
0.13947166
0.13888778
0.13824433
0.1375357
0.13675596
0.13589882
0.13495784
0.13392639
0.13279791
0.13156592
0.13022424
0.12876702
0.12718908
0.12548603
0.12365451
0.12169243
0.11959914
0.11737573
0.11502473
0.1492601
0.14895823
0.14862631
0.148261
0.1478585
0.14741456
0.14692455
0.14638347
0.14578592
0.14512613
0.14439791
0.14359481
0.14270998
0.14173625
0.14066623
0.13949244
0.13820747
0.13680413
0.13527561
0.13361563
0.13181873
0.12988054
0.12779796
0.12556949
0.12319543
0.12067811
0.11802159
0.15723422
0.156893
0.15651699
0.1561023
0.15564444
0.15513843
0.15457883
0.15395977
0.15327493
0.15251753
0.15168034
0.15075582
0.14973604
0.14861269
0.14737728
0.14602127
0.14453632
0.14291443
0.14114812
0.13923073
0.13715669
0.13492179
0.13252357
0.12996149
0.12723729
0.12435516
0.1213213
0.16655123
0.16616014
0.1657282
0.16525079
0.16472259
0.16413765
0.16348955
0.16277132
0.16197547
0.16109399
0.16011837
0.15903971
0.15784876
0.15653588
0.15509125
0.15350516
0.15176821
0.14987153
0.14780707
0.14556787
0.1431485
0.14054532
0.13775692
0.13478434
0.13163146
0.12830515
0.12481454
0.17727207
0.17681822
0.17631583
0.17575934
0.17514236
0.1744578
0.17369797
0.17285453
0.17191858
0.17088059
0.16973048
0.16845774
0.16705154
0.16550068
0.16379387
0.16192005
0.15986873
0.15763025
0.15519611
0.15255937
0.14971511
0.14666085
0.14339691
0.13992676
0.13625737
0.1323993
0.12836571
0.18945356
0.18892117
0.18833054
0.18767493
0.18694663
0.18613711
0.18523713
0.18423671
0.18312518
0.18189118
0.18052277
0.17900756
0.17733285
0.17548569
0.17345315
0.17122278
0.16878305
0.16612366
0.16323599
0.1601136
0.15675273
0.15315285
0.14931704
0.14525229
0.14096991
0.1364855
0.13181758
0.2031448
0.20251463
0.20181405
0.20103488
0.20016777
0.19920246
0.19812778
0.19693177
0.19560165
0.19412389
0.19248434
0.19066843
0.18866139
0.1864483
0.18401454
0.18134631
0.17843121
0.17525867
0.17182048
0.16811142
0.16412988
0.15987836
0.15536401
0.1505988
0.1455999
0.14038953
0.13499309
0.21838305
0.21763176
0.21679492
0.21586258
0.21482343
0.21366503
0.21237397
0.21093587
0.20933547
0.20755669
0.20558284
0.20339692
0.20098184
0.19832066
0.19539708
0.19219615
0.188705
0.1849134
0.18081437
0.176405
0.17168707
0.1666677
0.1613597
0.15578182
0.1499589
0.14392162
0.13770338
0.23518785
0.23428738
0.23328271
0.23216169
0.23091064
0.22951458
0.22795736
0.22622178
0.22428968
0.22214207
0.21975939
0.21712196
0.21421031
0.21100547
0.20748969
0.20364729
0.19946561
0.19493565
0.19005292
0.18481824
0.17923853
0.17332735
0.16710529
0.16059996
0.15384594
0.14688367
0.13975798
0.25355748
0.2524744
0.2512643
0.2499124
0.24840218
0.24671565
0.24483346
0.24273515
0.24039923
0.23780343
0.23492508
0.23174171
0.22823147
0.22437358
0.2201493
0.21554296
0.21054312
0.2051434
0.19934339
0.19314958
0.18657617
0.17964545
0.17238817
0.16484316
0.15705636
0.14908191
0.14097312
0.27346095
0.27215606
0.27069648
0.26906432
0.26723965
0.26520106
0.26292555
0.26038885
0.25756579
0.25443054
0.25095713
0.24712028
0.24289622
0.23826251
0.23320038
0.22769529
0.22173849
0.21532803
0.20846974
0.20117826
0.19347764
0.1854017
0.17699393
0.16830643
0.15939962
0.15033867
0.1412288
0.29483968
0.29326755
0.29150791
0.28953966
0.28733188
0.28487146
0.28212446
0.27906303
0.2756581
0.27188009
0.26769977
0.26308933
0.25802315
0.25247872
0.24643807
0.23988938
0.2328286
0.22526052
0.21719991
0.20867233
0.19971471
0.19037528
0.18071287
0.17079506
0.16069764
0.15054137
0.14032174
0.31759245
0.31570096
0.31358217
0.31121051
0.30855772
0.30559349
0.30228601
0.29860258
0.29450975
0.28997418
0.28496358
0.27944807
0.2734013
0.26680155
0.2596335
0.25189016
0.24357466
0.23470144
0.22529726
0.21540188
0.20506822
0.19436189
0.1833583
0.17214515
0.16085336
0.14949458
0.13821764
0.34159661
0.33932743
0.33678467
0.33393785
0.33075388
0.32719758
0.3232322
0.31882013
0.31392366
0.30850592
0.30253206
0.29597106
0.28879714
0.28099113
0.27254258
0.26345197
0.25373266
0.24341206
0.23253243
0.22115116
0.20934028
0.19718381
0.18478177
0.17227141
0.15968542
0.1471865
0.13487577
0.36667355
0.36396297
0.36092521
0.35752453
0.3537224
0.34947814
0.34474978
0.33949493
0.33367179
0.32724042
0.32016433
0.31241259
0.30396175
0.2947975
0.28491697
0.27433129
0.26306751
0.25116975
0.2386995
0.22573526
0.21236989
0.19871403
0.18490751
0.17101599
0.15720786
0.14360424
0.13031572
0.39264362
0.38942162
0.38581107
0.38177046
0.37725543
0.37221961
0.36661573
0.36039677
0.35351733
0.34593528
0.33761373
0.32852363
0.31864614
0.30797456
0.29651685
0.28429835
0.27136362
0.25777729
0.24362371
0.22900582
0.21404291
0.19887336
0.1836073
0.16841358
0.15343068
0.13879081
0.12461276
0.41924528
0.41544062
0.4111783
0.40641062
0.40108706
0.39515542
0.3885632
0.38125914
0.37319502
0.3643277
0.35462162
0.34405176
0.33260668
0.32029049
0.30712557
0.29315525
0.27844542
0.26308488
0.2471834
0.23087061
0.21429229
0.19759606
0.1809488
0.16451014
0.14843139
0.13285322
0.11789658
0.44630001
0.44183468
0.43683451
0.43124538
0.42501059
0.41807224
0.41037306
0.40185834
0.39247817
0.38219009
0.37096195
0.35877546
0.34562964
0.33154303
0.31655634
0.30073489
0.28416964
0.26697654
0.24929292
0.23127849
0.21310176
0.1949422
0.17697848
0.1593828
0.14231526
0.12591867
0.11031047
0.10546035
0.10357745
0.10145484
0.099068223
0.09639356
0.093408408
0.090093159
0.086433327
0.082423345
0.078068365
0.073376638
0.068381215
0.063123888
0.057674896
0.052095789
0.046509654
0.040960518
0.035668848
0.030551458
0.026081197
0.021728743
0.018778998
0.015216229
0.10570127
0.10379492
0.10164689
0.099232966
0.096529052
0.093512589
0.090164075
0.086469643
0.082419096
0.078024227
0.073288156
0.068247922
0.06294066
0.057448389
0.051815416
0.046202785
0.040594237
0.035310713
0.030096014
0.025705164
0.021130638
0.018390629
0.014312077
0.10677073
0.10476592
0.10250933
0.099976656
0.097144042
0.093989833
0.090495397
0.086650258
0.082447167
0.077894059
0.073001285
0.067812825
0.062356772
0.056728815
0.050950827
0.045227478
0.039477397
0.034131829
0.028760188
0.024370524
0.019560354
0.016869665
0.012425503
0.10828161
0.10613346
0.10371853
0.10101224
0.097990878
0.094633609
0.090923213
0.086850941
0.082425488
0.077633477
0.072507599
0.067098077
0.06142893
0.0556172
0.049653841
0.043791555
0.037863097
0.032423101
0.026870761
0.022450384
0.017416923
0.014734142
0.0099827199
0.11022754
0.1078816
0.10524909
0.10230537
0.09902729
0.095395327
0.091395975
0.087020172
0.082285891
0.077185922
0.071758871
0.066062704
0.060120258