/*--------------------------------*- C++ -*----------------------------------*\
  =========                 |
  \\      /  F ield         | OpenFOAM: The Open Source CFD Toolbox
   \\    /   O peration     | Website:  https://openfoam.org
    \\  /    A nd           | Version:  8
     \\/     M anipulation  |
\*---------------------------------------------------------------------------*/
FoamFile
{
    version     2.0;
    format      ascii;
    class       pointVectorField;
    location    "10";
    object      pointDisplacement;
}
// * * * * * * * * * * * * * * * * * * * * * * * * * * * * * * * * * * * * * //

dimensions      [0 1 0 0 0 0 0];

internalField   nonuniform List<vector> 
37650
(
(0 0 0)
(0 0 0)
(0 0 0)
(0 0 0)
(0 0 0)
(0 0 0)
(0 0 0)
(0 0 0)
(0 0 0)
(0 0 0)
(0 0 0)
(0 0 0)
(0 0 0)
(0 0 0)
(0 0 0)
(0 0 0)
(0 0 0)
(0 0 0)
(0 0 0)
(0 0 0)
(0 0 0)
(0 0 0)
(0 0 0)
(0 0 0)
(0 0 0)
(0 1.1281823e-07 0)
(0 0 0)
(0 1.0369388e-05 0)
(0 0 0)
(0 3.2933753e-05 0)
(0 0 0)
(0 6.2821516e-05 0)
(0 0 0)
(0 9.6363573e-05 0)
(0 0 0)
(0 0.00013096882 0)
(0 0 0)
(0 0.00016489438 0)
(0 0 0)
(0 0.00019704072 0)
(0 0 0)
(0 0.00022677932 0)
(0 0 0)
(0 0.00025381428 0)
(0 0 0)
(0 0.00027807524 0)
(0 0 0)
(0 0.00029963735 0)
(0 0 0)
(0 0 0)
(0 0 0)
(0 0 0)
(0 0 0)
(0 0 0)
(0 0 0)
(0 0 0)
(0 0 0)
(0 0 0)
(0 8.5853075e-06 0)
(0 4.6252899e-05 0)
(0 0.00010452442 0)
(0 0.00017499139 0)
(0 0.00025120848 0)
(0 0.00032846832 0)
(0 0.00040351744 0)
(0 0.0004742615 0)
(0 0.00053949075 0)
(0 0.0005986421 0)
(0 0.00065160418 0)
(0 0.00069856429 0)
(0 0.00073989333 0)
(0 0.00077606218 0)
(0 0 0)
(0 0 0)
(0 0 0)
(0 0 0)
(0 0 0)
(0 0 0)
(0 0 0)
(0 0 0)
(0 7.2261756e-06 0)
(0 5.9465873e-05 0)
(0 0.00014942643 0)
(0 0.00026377893 0)
(0 0.00039159646 0)
(0 0.00052437759 0)
(0 0.0006558598 0)
(0 0.0007817128 0)
(0 0.00089918369 0)
(0 0.0010067451 0)
(0 0.0011037768 0)
(0 0.0011902968 0)
(0 0.0012667454 0)
(0 0.0013338196 0)
(0 0.0013923514 0)
(0 0.0014432221 0)
(0 0 0)
(0 0 0)
(0 0 0)
(0 0 0)
(0 0 0)
(0 0 0)
(0 0 0)
(0 3.0298075e-05 0)
(0 0.00012639875 0)
(0 0.000270308 0)
(0 0.00044535631 0)
(0 0.00063745756 0)
(0 0.00083536647 0)
(0 0.0010306134 0)
(0 0.0012172272 0)
(0 0.0013913449 0)
(0 0.0015507864 0)
(0 0.0016946468 0)
(0 0.0018229363 0)
(0 0.001936283 0)
(0 0.0020356978 0)
(0 0.0021223991 0)
(0 0.0021976864 0)
(0 0.0022628541 0)
(0 0 0)
(0 0 0)
(0 0 0)
(0 0 0)
(0 0 0)
(0 0 0)
(0 4.8132678e-05 0)
(0 0.00017979325 0)
(0 0.00037344321 0)
(0 0.00060884057 0)
(0 0.00086820319 0)
(0 0.0011368388 0)
(0 0.0014033219 0)
(0 0.001659335 0)
(0 0.0018992975 0)
(0 0.0021198921 0)
(0 0.0023195698 0)
(0 0.0024980881 0)
(0 0.0026561134 0)
(0 0.0027948966 0)
(0 0.0029160239 0)
(0 0.003021233 0)
(0 0.0031122842 0)
(0 0.0031908758 0)
(0 0 0)
(0 0 0)
(0 0 0)
(0 0 0)
(0 0 0)
(0 4.8132676e-05 0)
(0 0.00019990088 0)
(0 0.00043215481 0)
(0 0.00072128895 0)
(0 0.0010455611 0)
(0 0.0013862408 0)
(0 0.0017281815 0)
(0 0.0020599108 0)
(0 0.0023733742 0)
(0 0.0026634695 0)
(0 0.0029274896 0)
(0 0.00316456 0)
(0 0.0033751267 0)
(0 0.0035605226 0)
(0 0.0037226213 0)
(0 0.0038635756 0)
(0 0.0039856279 0)
(0 0.0040909819 0)
(0 0.0041817207 0)
(0 0 0)
(0 0 0)
(0 0 0)
(0 0 0)
(0 3.0298071e-05 0)
(0 0.00017979325 0)
(0 0.00043215481 0)
(0 0.00076125026 0)
(0 0.0011415901 0)
(0 0.0015501078 0)
(0 0.0019672887 0)
(0 0.0023776769 0)
(0 0.0027698754 0)
(0 0.0031361907 0)
(0 0.0034720726 0)
(0 0.0037754745 0)
(0 0.0040462264 0)
(0 0.0042854748 0)
(0 0.0044952181 0)
(0 0.0046779408 0)
(0 0.0048363426 0)
(0 0.0049731471 0)
(0 0.0050909751 0)
(0 0.0051922677 0)
(0 0 0)
(0 0 0)
(0 0 0)
(0 7.2261724e-06 0)
(0 0.00012639874 0)
(0 0.0003734432 0)
(0 0.00072128894 0)
(0 0.0011415901 0)
(0 0.0016071598 0)
(0 0.0020937816 0)
(0 0.0025813113 0)
(0 0.0030541154 0)
(0 0.0035009794 0)
(0 0.0039146527 0)
(0 0.0042911946 0)
(0 0.0046292552 0)
(0 0.0049293862 0)
(0 0.0051934362 0)
(0 0.0054240575 0)
(0 0.0056243252 0)
(0 0.0057974594 0)
(0 0.0059466346 0)
(0 0.0060748568 0)
(0 0.0061848927 0)
(0 0 0)
(0 0 0)
(0 0 0)
(0 5.9465864e-05 0)
(0 0.00027030799 0)
(0 0.00060884055 0)
(0 0.001045561 0)
(0 0.0015501078 0)
(0 0.0020937816 0)
(0 0.0026513803 0)
(0 0.0032022698 0)
(0 0.0037307529 0)
(0 0.0042258851 0)
(0 0.0046809221 0)
(0 0.0050925743 0)
(0 0.0054602107 0)
(0 0.0057851101 0)
(0 0.0060698157 0)
(0 0.0063176157 0)
(0 0.0065321497 0)
(0 0.0067171274 0)
(0 0.0068761402 0)
(0 0.0070125443 0)
(0 0.0071293979 0)
(0 0 0)
(0 0 0)
(0 8.5853022e-06 0)
(0 0.00014942642 0)
(0 0.00044535629 0)
(0 0.00086820317 0)
(0 0.0013862408 0)
(0 0.0019672887 0)
(0 0.0025813113 0)
(0 0.0032022698 0)
(0 0.0038091609 0)
(0 0.0043863157 0)
(0 0.0049231263 0)
(0 0.0054133986 0)
(0 0.0058545188 0)
(0 0.0062465837 0)
(0 0.006591595 0)
(0 0.0068927754 0)
(0 0.0071540262 0)
(0 0.0073795228 0)
(0 0.0075734319 0)
(0 0.0077397273 0)
(0 0.0078820803 0)
(0 0.0080038062 0)
(0 0 0)
(0 0 0)
(0 4.6252887e-05 0)
(0 0.00026377891 0)
(0 0.00063745754 0)
(0 0.0011368388 0)
(0 0.0017281815 0)
(0 0.0023776769 0)
(0 0.0030541154 0)
(0 0.0037307529 0)
(0 0.0043863157 0)
(0 0.005005233 0)
(0 0.0055772783 0)
(0 0.0060968321 0)
(0 0.0065619651 0)
(0 0.0069734976 0)
(0 0.0073341411 0)
(0 0.0076477774 0)
(0 0.0079188951 0)
(0 0.0081521758 0)
(0 0.0083522113 0)
(0 0.0085233245 0)
(0 0.0086694688 0)
(0 0.0087941837 0)
(0 0 0)
(0 1.1281742e-07 0)
(0 0.0001045244 0)
(0 0.00039159643 0)
(0 0.00083536645 0)
(0 0.0014033219 0)
(0 0.0020599108 0)
(0 0.0027698754 0)
(0 0.0035009794 0)
(0 0.0042258851 0)
(0 0.0049231263 0)
(0 0.0055772783 0)
(0 0.00617852 0)
(0 0.0067218124 0)
(0 0.0072059036 0)
(0 0.0076323221 0)
(0 0.0080044677 0)
(0 0.0083268564 0)
(0 0.0086045362 0)
(0 0.0088426661 0)
(0 0.009046233 0)
(0 0.0092198787 0)
(0 0.0093678088 0)
(0 0.0094937584 0)
(0 0 0)
(0 1.036938e-05 0)
(0 0.00017499137 0)
(0 0.00052437756 0)
(0 0.0010306134 0)
(0 0.0016593349 0)
(0 0.0023733742 0)
(0 0.0031361908 0)
(0 0.0039146527 0)
(0 0.0046809221 0)
(0 0.0054133986 0)
(0 0.0060968322 0)
(0 0.0067218124 0)
(0 0.0072838704 0)
(0 0.0077824108 0)
(0 0.008219644 0)
(0 0.0085996296 0)
(0 0.0089274886 0)
(0 0.0092088001 0)
(0 0.0094491723 0)
(0 0.0096539597 0)
(0 0.0098280967 0)
(0 0.0099760156 0)
(0 0.010101622 0)
(0 0 0)
(0 3.293374e-05 0)
(0 0.00025120845 0)
(0 0.00065585978 0)
(0 0.0012172272 0)
(0 0.0018992975 0)
(0 0.0026634695 0)
(0 0.0034720726 0)
(0 0.0042911946 0)
(0 0.0050925743 0)
(0 0.0058545189 0)
(0 0.0065619651 0)
(0 0.0072059036 0)
(0 0.0077824108 0)
(0 0.0082915154 0)
(0 0.0087360746 0)
(0 0.0091207727 0)
(0 0.0094513031 0)
(0 0.0097337461 0)
(0 0.0099741321 0)
(0 0.010178159 0)
(0 0.010351031 0)
(0 0.010497387 0)
(0 0.010621282 0)
(0 0 0)
(0 6.2821499e-05 0)
(0 0.00032846829 0)
(0 0.00078171277 0)
(0 0.0013913449 0)
(0 0.0021198921 0)
(0 0.0029274896 0)
(0 0.0037754745 0)
(0 0.0046292553 0)
(0 0.0054602107 0)
(0 0.0062465837 0)
(0 0.0069734976 0)
(0 0.0076323221 0)
(0 0.008219644 0)
(0 0.0087360746 0)
(0 0.0091850747 0)
(0 0.0095719134 0)
(0 0.0099028204 0)
(0 0.010184346 0)
(0 0.010422918 0)
(0 0.010624554 0)
(0 0.01079471 0)
(0 0.010938212 0)
(0 0.011059252 0)
(0 0 0)
(0 9.6363552e-05 0)
(0 0.00040351741 0)
(0 0.00089918367 0)
(0 0.0015507864 0)
(0 0.0023195698 0)
(0 0.0031645601 0)
(0 0.0040462264 0)
(0 0.0049293862 0)
(0 0.0057851102 0)
(0 0.006591595 0)
(0 0.0073341411 0)
(0 0.0080044678 0)
(0 0.0085996297 0)
(0 0.0091207727 0)
(0 0.0095719134 0)
(0 0.0099588609 0)
(0 0.010288342 0)
(0 0.010567347 0)
(0 0.010802672 0)
(0 0.011000637 0)
(0 0.011166931 0)
(0 0.011306554 0)
(0 0.011423826 0)
(0 0 0)
(0 0.00013096879 0)
(0 0.00047426148 0)
(0 0.001006745 0)
(0 0.0016946468 0)
(0 0.0024980882 0)
(0 0.0033751268 0)
(0 0.0042854749 0)
(0 0.0051934362 0)
(0 0.0060698158 0)
(0 0.0068927755 0)
(0 0.0076477775 0)
(0 0.0083268564 0)
(0 0.0089274887 0)
(0 0.0094513031 0)
(0 0.0099028204 0)
(0 0.010288342 0)
(0 0.010615054 0)
(0 0.010890349 0)
(0 0.011121368 0)
(0 0.011314712 0)
(0 0.011476291 0)
(0 0.011611269 0)
(0 0.01172408 0)
(0 0 0)
(0 0.00016489436 0)
(0 0.00053949072 0)
(0 0.0011037767 0)
(0 0.0018229363 0)
(0 0.0026561134 0)
(0 0.0035605226 0)
(0 0.0044952182 0)
(0 0.0054240576 0)
(0 0.0063176158 0)
(0 0.0071540263 0)
(0 0.0079188952 0)
(0 0.0086045363 0)
(0 0.0092088002 0)
(0 0.0097337461 0)
(0 0.010184346 0)
(0 0.010567347 0)
(0 0.010890349 0)
(0 0.011161116 0)
(0 0.011387107 0)
(0 0.011575185 0)
(0 0.011731464 0)
(0 0.011861265 0)
(0 0.01196913 0)
(0 0 0)
(0 0.00019704069 0)
(0 0.00059864208 0)
(0 0.0011902968 0)
(0 0.001936283 0)
(0 0.0027948966 0)
(0 0.0037226214 0)
(0 0.0046779408 0)
(0 0.0056243252 0)
(0 0.0065321498 0)
(0 0.0073795228 0)
(0 0.0081521759 0)
(0 0.0088426662 0)
(0 0.0094491723 0)
(0 0.0099741322 0)
(0 0.010422918 0)
(0 0.010802672 0)
(0 0.011121368 0)
(0 0.011387107 0)
(0 0.011607639 0)
(0 0.011790068 0)
(0 0.011940701 0)
(0 0.012065006 0)
(0 0.012167631 0)
(0 0 0)
(0 0.0002267793 0)
(0 0.00065160415 0)
(0 0.0012667454 0)
(0 0.0020356978 0)
(0 0.0029160239 0)
(0 0.0038635757 0)
(0 0.0048363426 0)
(0 0.0057974595 0)
(0 0.0067171275 0)
(0 0.007573432 0)
(0 0.0083522114 0)
(0 0.0090462331 0)
(0 0.0096539597 0)
(0 0.010178159 0)
(0 0.010624554 0)
(0 0.011000637 0)
(0 0.011314712 0)
(0 0.011575185 0)
(0 0.011790068 0)
(0 0.011966688 0)
(0 0.012111532 0)
(0 0.012230205 0)
(0 0.012327455 0)
(0 0 0)
(0 0.00025381426 0)
(0 0.00069856427 0)
(0 0.0013338196 0)
(0 0.0021223991 0)
(0 0.003021233 0)
(0 0.003985628 0)
(0 0.0049731471 0)
(0 0.0059466347 0)
(0 0.0068761403 0)
(0 0.0077397274 0)
(0 0.0085233246 0)
(0 0.0092198788 0)
(0 0.0098280968 0)
(0 0.010351031 0)
(0 0.01079471 0)
(0 0.011166931 0)
(0 0.011476291 0)
(0 0.011731464 0)
(0 0.011940701 0)
(0 0.012111532 0)
(0 0.012250609 0)
(0 0.012363665 0)
(0 0.012455546 0)
(0 0 0)
(0 0.00027807522 0)
(0 0.00073989331 0)
(0 0.0013923514 0)
(0 0.0021976864 0)
(0 0.0031122842 0)
(0 0.004090982 0)
(0 0.0050909752 0)
(0 0.0060748569 0)
(0 0.0070125444 0)
(0 0.0078820804 0)
(0 0.0086694689 0)
(0 0.0093678089 0)
(0 0.0099760157 0)
(0 0.010497387 0)
(0 0.010938212 0)
(0 0.011306555 0)
(0 0.011611269 0)
(0 0.011861265 0)
(0 0.012065006 0)
(0 0.012230205 0)
(0 0.012363665 0)
(0 0.012471241 0)
(0 0.012557869 0)
(0 0 0)
(0 0.00029963732 0)
(0 0.00077606217 0)
(0 0.0014432221 0)
(0 0.0022628541 0)
(0 0.0031908759 0)
(0 0.0041817208 0)
(0 0.0051922678 0)
(0 0.0061848928 0)
(0 0.0071293981 0)
(0 0.0080038063 0)
(0 0.0087941839 0)
(0 0.0094937585 0)
(0 0.010101623 0)
(0 0.010621282 0)
(0 0.011059253 0)
(0 0.011423826 0)
(0 0.01172408 0)
(0 0.01196913 0)
(0 0.012167631 0)
(0 0.012327455 0)
(0 0.012455546 0)
(0 0.012557869 0)
(0 0.012639445 0)
(0 0 0)
(0 0.00032063319 0)
(0 0 0)
(0 0.00034027647 0)
(0 0 0)
(0 0.00035848796 0)
(0 0 0)
(0 0.00037522698 0)
(0 0 0)
(0 0.00039048654 0)
(0 0 0)
(0 0.00040428813 0)
(0 0 0)
(0 0.00041667648 0)
(0 0 0)
(0 0.00042771449 0)
(0 0 0)
(0 0.00043747851 0)
(0 0 0)
(0 0.00044605417 0)
(0 0 0)
(0 0.00045353262 0)
(0 0 0)
(0 0.00046000745 0)
(0 0 0)
(0 0.00046557213 0)
(0 0 0)
(0 0.000470318 0)
(0 0 0)
(0 0.0004743327 0)
(0 0 0)
(0 0.00047769908 0)
(0 0 0)
(0 0.00048049446 0)
(0 0 0)
(0 0.00048279021 0)
(0 0 0)
(0 0.00048465151 0)
(0 0 0)
(0 0.00048613741 0)
(0 0 0)
(0 0.00048730097 0)
(0 0 0)
(0 0.00048818951 0)
(0 0 0)
(0 0.00048884496 0)
(0 0 0)
(0 0.00048930426 0)
(0 0 0)
(0 0.00048959971 0)
(0 0 0)
(0 0.00048975946 0)
(0 0 0)
(0 0.00048980787 0)
(0 0.00081082756 0)
(0 0.00084298633 0)
(0 0.00087251083 0)
(0 0.00089942014 0)
(0 0.00092377319 0)
(0 0.00094566165 0)
(0 0.00096520291 0)
(0 0.00098253343 0)
(0 0.0009978027 0)
(0 0.0010111679 0)
(0 0.0010227891 0)
(0 0.0010328259 0)
(0 0.0010414338 0)
(0 0.0010487621 0)
(0 0.0010549522 0)
(0 0.0010601362 0)
(0 0.0010644366 0)
(0 0.0010679653 0)
(0 0.0010708244 0)
(0 0.0010731056 0)
(0 0.0010748911 0)
(0 0.0010762542 0)
(0 0.0010772594 0)
(0 0.0010779637 0)
(0 0.0010784167 0)
(0 0.0010786616 0)
(0 0.0010787358 0)
(0 0.0014918297 0)
(0 0.0015365557 0)
(0 0.001577428 0)
(0 0.0016145292 0)
(0 0.0016479873 0)
(0 0.0016779666 0)
(0 0.0017046595 0)
(0 0.0017282775 0)
(0 0.0017490447 0)
(0 0.0017671908 0)
(0 0.0017829458 0)
(0 0.0017965355 0)
(0 0.0018081778 0)
(0 0.0018180805 0)
(0 0.0018264388 0)
(0 0.0018334341 0)
(0 0.0018392339 0)
(0 0.0018439911 0)
(0 0.0018478439 0)
(0 0.0018509172 0)
(0 0.0018533222 0)
(0 0.0018551579 0)
(0 0.0018565115 0)
(0 0.0018574597 0)
(0 0.0018580696 0)
(0 0.0018583993 0)
(0 0.0018584992 0)
(0 0.0023249031 0)
(0 0.0023818157 0)
(0 0.0024336786 0)
(0 0.0024806396 0)
(0 0.002522897 0)
(0 0.0025606883 0)
(0 0.0025942804 0)
(0 0.0026239597 0)
(0 0.0026500236 0)
(0 0.0026727729 0)
(0 0.0026925059 0)
(0 0.0027095132 0)
(0 0.0027240735 0)
(0 0.0027364508 0)
(0 0.0027468926 0)
(0 0.0027556283 0)
(0 0.0027628685 0)
(0 0.0027688054 0)
(0 0.0027736127 0)
(0 0.0027774466 0)
(0 0.0027804464 0)
(0 0.0027827357 0)
(0 0.0027844237 0)
(0 0.0027856062 0)
(0 0.0027863666 0)
(0 0.0027867778 0)
(0 0.0027869023 0)
(0 0.0032655225 0)
(0 0.003333837 0)
(0 0.0033959662 0)
(0 0.0034521239 0)
(0 0.0035025777 0)
(0 0.003547637 0)
(0 0.003587641 0)
(0 0.0036229479 0)
(0 0.0036539251 0)
(0 0.0036809414 0)
(0 0.0037043594 0)
(0 0.0037245307 0)
(0 0.0037417911 0)
(0 0.0037564574 0)
(0 0.0037688257 0)
(0 0.0037791699 0)
(0 0.0037877412 0)
(0 0.0037947681 0)
(0 0.0038004571 0)
(0 0.0038049935 0)
(0 0.0038085425 0)
(0 0.0038112509 0)
(0 0.0038132477 0)
(0 0.0038146464 0)
(0 0.0038155459 0)
(0 0.0038160322 0)
(0 0.0038161796 0)
(0 0.0042677386 0)
(0 0.0043463209 0)
(0 0.004417675 0)
(0 0.0044820796 0)
(0 0.0045398698 0)
(0 0.0045914235 0)
(0 0.0046371482 0)
(0 0.0046774691 0)
(0 0.0047128188 0)
(0 0.0047436281 0)
(0 0.0047703188 0)
(0 0.0047932978 0)
(0 0.0048129523 0)
(0 0.0048296471 0)
(0 0.0048437218 0)
(0 0.0048554902 0)
(0 0.0048652394 0)
(0 0.0048732307 0)
(0 0.0048796995 0)
(0 0.0048848572 0)
(0 0.004888892 0)
(0 0.0048919707 0)
(0 0.0048942405 0)
(0 0.0048958304 0)
(0 0.0048968528 0)
(0 0.0048974055 0)
(0 0.004897573 0)
(0 0.0052881301 0)
(0 0.0053755712 0)
(0 0.0054548589 0)
(0 0.0055263348 0)
(0 0.0055903982 0)
(0 0.0056474911 0)
(0 0.0056980838 0)
(0 0.0057426625 0)
(0 0.0057817183 0)
(0 0.0058157373 0)
(0 0.0058451934 0)
(0 0.0058705418 0)
(0 0.0058922146 0)
(0 0.0059106177 0)
(0 0.0059261283 0)
(0 0.0059390943 0)
(0 0.0059498336 0)
(0 0.005958635 0)
(0 0.0059657587 0)
(0 0.0059714379 0)
(0 0.0059758803 0)
(0 0.0059792699 0)
(0 0.0059817687 0)
(0 0.0059835189 0)
(0 0.0059846445 0)
(0 0.0059852529 0)
(0 0.0059854373 0)
(0 0.0062888665 0)
(0 0.006383568 0)
(0 0.0064693249 0)
(0 0.0065465396 0)
(0 0.0066156714 0)
(0 0.0066772212 0)
(0 0.006731716 0)
(0 0.0067796961 0)
(0 0.0068217034 0)
(0 0.0068582714 0)
(0 0.0068899183 0)
(0 0.0069171397 0)
(0 0.0069404051 0)
(0 0.006960154 0)
(0 0.0069767942 0)
(0 0.0069907012 0)
(0 0.0070022178 0)
(0 0.0070116546 0)
(0 0.0070192915 0)
(0 0.0070253793 0)
(0 0.0070301409 0)
(0 0.0070337738 0)
(0 0.0070364519 0)
(0 0.0070383276 0)
(0 0.0070395337 0)
(0 0.0070401858 0)
(0 0.0070403834 0)
(0 0.0072396393 0)
(0 0.0073399003 0)
(0 0.0074305677 0)
(0 0.0075121019 0)
(0 0.0075850185 0)
(0 0.0076498716 0)
(0 0.0077072386 0)
(0 0.0077577064 0)
(0 0.0078018596 0)
(0 0.0078402714 0)
(0 0.0078734954 0)
(0 0.0079020597 0)
(0 0.0079264626 0)
(0 0.0079471697 0)
(0 0.0079646121 0)
(0 0.0079791858 0)
(0 0.0079912518 0)
(0 0.0080011372 0)
(0 0.008009136 0)
(0 0.0080155115 0)
(0 0.0080204977 0)
(0 0.0080243016 0)
(0 0.0080271057 0)
(0 0.0080290695 0)
(0 0.0080303324 0)
(0 0.0080310151 0)
(0 0.0080312219 0)
(0 0.0081184503 0)
(0 0.0082225486 0)
(0 0.0083165466 0)
(0 0.0084009604 0)
(0 0.0084763579 0)
(0 0.0085433414 0)
(0 0.0086025323 0)
(0 0.0086545567 0)
(0 0.0087000347 0)
(0 0.0087395705 0)
(0 0.008773745 0)
(0 0.0088031104 0)
(0 0.0088281857 0)
(0 0.0088494547 0)
(0 0.0088673642 0)
(0 0.0088823238 0)
(0 0.0088947063 0)
(0 0.0089048488 0)
(0 0.0089130544 0)
(0 0.0089195938 0)
(0 0.0089247077 0)
(0 0.0089286087 0)
(0 0.0089314841 0)
(0 0.0089334979 0)
(0 0.0089347928 0)
(0 0.0089354928 0)
(0 0.0089357049 0)
(0 0.0089114226 0)
(0 0.0090176856 0)
(0 0.0091134767 0)
(0 0.0091993662 0)
(0 0.0092759712 0)
(0 0.0093439377 0)
(0 0.0094039252 0)
(0 0.009456593 0)
(0 0.0095025889 0)
(0 0.0095425407 0)
(0 0.0095770488 0)
(0 0.0096066812 0)
(0 0.0096319701 0)
(0 0.0096534097 0)
(0 0.0096714552 0)
(0 0.0096865231 0)
(0 0.0096989916 0)
(0 0.009709202 0)
(0 0.0097174609 0)
(0 0.0097240417 0)
(0 0.0097291872 0)
(0 0.0097331121 0)
(0 0.0097360048 0)
(0 0.0097380306 0)
(0 0.0097393332 0)
(0 0.0097400373 0)
(0 0.0097402507 0)
(0 0.0096119031 0)
(0 0.009718764 0)
(0 0.0098149044 0)
(0 0.0099009479 0)
(0 0.0099775585 0)
(0 0.010045422 0)
(0 0.010105232 0)
(0 0.010157675 0)
(0 0.010203421 0)
(0 0.010243113 0)
(0 0.010277365 0)
(0 0.010306754 0)
(0 0.010331817 0)
(0 0.010353051 0)
(0 0.010370915 0)
(0 0.010385825 0)
(0 0.010398158 0)
(0 0.010408254 0)
(0 0.010416419 0)
(0 0.010422923 0)
(0 0.010428008 0)
(0 0.010431886 0)
(0 0.010434744 0)
(0 0.010436745 0)
(0 0.010438032 0)
(0 0.010438727 0)
(0 0.010438938 0)
(0 0.010219149 0)
(0 0.01032519 0)
(0 0.010420367 0)
(0 0.010505359 0)
(0 0.010580875 0)
(0 0.010647639 0)
(0 0.010706374 0)
(0 0.01075779 0)
(0 0.010802573 0)
(0 0.010841379 0)
(0 0.010874826 0)
(0 0.010903494 0)
(0 0.01092792 0)
(0 0.010948599 0)
(0 0.010965984 0)
(0 0.010980485 0)
(0 0.010992474 0)
(0 0.011002286 0)
(0 0.011010217 0)
(0 0.011016534 0)
(0 0.011021471 0)
(0 0.011025236 0)
(0 0.01102801 0)
(0 0.011029952 0)
(0 0.011031201 0)
(0 0.011031876 0)
(0 0.011032081 0)
(0 0.010736863 0)
(0 0.010840841 0)
(0 0.010933901 0)
(0 0.011016775 0)
(0 0.011090218 0)
(0 0.011154992 0)
(0 0.011211847 0)
(0 0.011261514 0)
(0 0.011304691 0)
(0 0.011342041 0)
(0 0.011374184 0)
(0 0.011401697 0)
(0 0.011425111 0)
(0 0.011444913 0)
(0 0.011461545 0)
(0 0.011475408 0)
(0 0.011486862 0)
(0 0.011496231 0)
(0 0.0115038 0)
(0 0.011509827 0)
(0 0.011514537 0)
(0 0.011518127 0)
(0 0.011520772 0)
(0 0.011522624 0)
(0 0.011523815 0)
(0 0.011524458 0)
(0 0.011524653 0)
(0 0.011171772 0)
(0 0.011272636 0)
(0 0.011362595 0)
(0 0.011442438 0)
(0 0.011512965 0)
(0 0.011574976 0)
(0 0.011629249 0)
(0 0.011676533 0)
(0 0.011717537 0)
(0 0.011752927 0)
(0 0.011783322 0)
(0 0.011809291 0)
(0 0.011831356 0)
(0 0.011849991 0)
(0 0.011865624 0)
(0 0.011878642 0)
(0 0.011889388 0)
(0 0.01189817 0)
(0 0.011905263 0)
(0 0.011910907 0)
(0 0.011915315 0)
(0 0.011918675 0)
(0 0.01192115 0)
(0 0.011922883 0)
(0 0.011923996 0)
(0 0.011924598 0)
(0 0.01192478 0)
(0 0.011532384 0)
(0 0.011629281 0)
(0 0.011715334 0)
(0 0.011791389 0)
(0 0.011858298 0)
(0 0.011916896 0)
(0 0.01196799 0)
(0 0.012012348 0)
(0 0.01205069 0)
(0 0.012083684 0)
(0 0.012111943 0)
(0 0.012136029 0)
(0 0.012156449 0)
(0 0.012173662 0)
(0 0.012188078 0)
(0 0.012200065 0)
(0 0.012209949 0)
(0 0.012218018 0)
(0 0.01222453 0)
(0 0.012229708 0)
(0 0.01223375 0)
(0 0.01223683 0)
(0 0.012239097 0)
(0 0.012240684 0)
(0 0.012241704 0)
(0 0.012242255 0)
(0 0.012242422 0)
(0 0.011827989 0)
(0 0.011920258 0)
(0 0.012001773 0)
(0 0.012073443 0)
(0 0.012136168 0)
(0 0.012190825 0)
(0 0.012238252 0)
(0 0.012279235 0)
(0 0.012314506 0)
(0 0.012344733 0)
(0 0.012370527 0)
(0 0.012392438 0)
(0 0.012410958 0)
(0 0.012426527 0)
(0 0.012439537 0)
(0 0.012450332 0)
(0 0.012459218 0)
(0 0.012466462 0)
(0 0.012472301 0)
(0 0.012476939 0)
(0 0.012480557 0)
(0 0.012483312 0)
(0 0.01248534 0)
(0 0.012486758 0)
(0 0.01248767 0)
(0 0.012488162 0)
(0 0.012488311 0)
(0 0.012067903 0)
(0 0.012155068 0)
(0 0.012231583 0)
(0 0.012298418 0)
(0 0.01235653 0)
(0 0.012406838 0)
(0 0.012450212 0)
(0 0.012487462 0)
(0 0.012519329 0)
(0 0.012546488 0)
(0 0.012569544 0)
(0 0.012589035 0)
(0 0.012605439 0)
(0 0.012619176 0)
(0 0.012630616 0)
(0 0.012640081 0)
(0 0.012647852 0)
(0 0.012654174 0)
(0 0.01265926 0)
(0 0.012663294 0)
(0 0.012666438 0)
(0 0.012668829 0)
(0 0.012670588 0)
(0 0.012671818 0)
(0 0.012672608 0)
(0 0.012673035 0)
(0 0.012673164 0)
(0 0.01226096 0)
(0 0.012342713 0)
(0 0.01241392 0)
(0 0.012475615 0)
(0 0.012528811 0)
(0 0.012574474 0)
(0 0.01261351 0)
(0 0.012646753 0)
(0 0.012674961 0)
(0 0.012698813 0)
(0 0.012718911 0)
(0 0.012735784 0)
(0 0.012749895 0)
(0 0.012761644 0)
(0 0.012771378 0)
(0 0.012779395 0)
(0 0.012785952 0)
(0 0.012791268 0)
(0 0.012795534 0)
(0 0.01279891 0)
(0 0.012801535 0)
(0 0.012803529 0)
(0 0.012804994 0)
(0 0.012806018 0)
(0 0.012806675 0)
(0 0.01280703 0)
(0 0.012807138 0)
(0 0.012415196 0)
(0 0.012491381 0)
(0 0.012557112 0)
(0 0.012613489 0)
(0 0.012661584 0)
(0 0.012702412 0)
(0 0.012736917 0)
(0 0.012765963 0)
(0 0.012790325 0)
(0 0.012810692 0)
(0 0.012827665 0)
(0 0.012841767 0)
(0 0.012853444 0)
(0 0.012863079 0)
(0 0.012870996 0)
(0 0.012877469 0)
(0 0.012882729 0)
(0 0.01288697 0)
(0 0.012890357 0)
(0 0.012893028 0)
(0 0.012895098 0)
(0 0.012896667 0)
(0 0.012897817 0)
(0 0.01289862 0)
(0 0.012899135 0)
(0 0.012899413 0)
(0 0.012899497 0)
(0 0.012537689 0)
(0 0.01260828 0)
(0 0.012668491 0)
(0 0.012719488 0)
(0 0.012762401 0)
(0 0.012798298 0)
(0 0.012828166 0)
(0 0.012852899 0)
(0 0.012873297 0)
(0 0.012890059 0)
(0 0.012903789 0)
(0 0.012915005 0)
(0 0.012924143 0)
(0 0.012931567 0)
(0 0.01293758 0)
(0 0.012942433 0)
(0 0.01294633 0)
(0 0.01294944 0)
(0 0.012951902 0)
(0 0.012953829 0)
(0 0.012955313 0)
(0 0.012956433 0)
(0 0.012957251 0)
(0 0.01295782 0)
(0 0.012958185 0)
(0 0.012958381 0)
(0 0.01295844 0)
(0 0.012634518 0)
(0 0.012699598 0)
(0 0.012754349 0)
(0 0.012800002 0)
(0 0.012837747 0)
(0 0.012868703 0)
(0 0.012893903 0)
(0 0.012914279 0)
(0 0.012930653 0)
(0 0.012943742 0)
(0 0.012954158 0)
(0 0.012962416 0)
(0 0.012968941 0)
(0 0.012974085 0)
(0 0.012978131 0)
(0 0.012981305 0)
(0 0.012983788 0)
(0 0.012985723 0)
(0 0.012987223 0)
(0 0.012988375 0)
(0 0.01298925 0)
(0 0.012989901 0)
(0 0.012990372 0)
(0 0.012990698 0)
(0 0.012990905 0)
(0 0.012991017 0)
(0 0.01299105 0)
(0 0.012710793 0)
(0 0.012770533 0)
(0 0.012819971 0)
(0 0.012860399 0)
(0 0.012893065 0)
(0 0.012919145 0)
(0 0.012939717 0)
(0 0.01295575 0)
(0 0.012968098 0)
(0 0.012977496 0)
(0 0.012984568 0)
(0 0.012989829 0)
(0 0.012993702 0)
(0 0.012996523 0)
(0 0.012998559 0)
(0 0.013000015 0)
(0 0.013001048 0)
(0 0.013001776 0)
(0 0.013002285 0)
(0 0.01300264 0)
(0 0.013002886 0)
(0 0.013003054 0)
(0 0.013003168 0)
(0 0.013003242 0)
(0 0.013003287 0)
(0 0.013003311 0)
(0 0.013003318 0)
(0 0 0)
(0 0.00048980783 0)
(0 0 0)
(0 0.00048980783 0)
(0 0 0)
(0 0.00048980783 0)
(0 0 0)
(0 0.00048980783 0)
(0 0 0)
(0 0.00048980783 0)
(0 0 0)
(0 0.00048980783 0)
(0 0 0)
(0 0.00048980783 0)
(0 0 0)
(0 0.00048980783 0)
(0 0 0)
(0 0.00048980783 0)
(0 0 0)
(0 0.00048980783 0)
(0 0 0)
(0 0.00048980783 0)
(0 0 0)
(0 0.00048980783 0)
(0 0 0)
(0 0.00048980783 0)
(0 0 0)
(0 0.00048980783 0)
(0 0 0)
(0 0.00048980783 0)
(0 0 0)
(0 0.00048980783 0)
(0 0 0)
(0 0.00048980783 0)
(0 0 0)
(0 0.00048980783 0)
(0 0 0)
(0 0.00048980783 0)
(0 0 0)
(0 0.00048980783 0)
(0 0 0)
(0 0.00048980783 0)
(0 0 0)
(0 0.00048980783 0)
(0 0 0)
(0 0.00048980783 0)
(0 0 0)
(0 0.00048980783 0)
(0 0 0)
(0 0.00048980783 0)
(0 0 0)
(0 0.00048980783 0)
(0 0 0)
(0 0.00048980783 0)
(0 0 0)
(0 0.00048980783 0)
(0 0 0)
(0 0.00048980783 0)
(0 0 0)
(0 0.00048980783 0)
(0 0 0)
(0 0.00048980783 0)
(0 0 0)
(0 0.00048980783 0)
(0 0 0)
(0 0.00048980783 0)
(0 0 0)
(0 0.00048980787 0)
(0 0.0010787357 0)
(0 0.0010787357 0)
(0 0.0010787357 0)
(0 0.0010787357 0)
(0 0.0010787357 0)
(0 0.0010787357 0)
(0 0.0010787357 0)
(0 0.0010787357 0)
(0 0.0010787357 0)
(0 0.0010787357 0)
(0 0.0010787357 0)
(0 0.0010787357 0)
(0 0.0010787357 0)
(0 0.0010787357 0)
(0 0.0010787357 0)
(0 0.0010787357 0)
(0 0.0010787357 0)
(0 0.0010787357 0)
(0 0.0010787357 0)
(0 0.0010787357 0)
(0 0.0010787357 0)
(0 0.0010787357 0)
(0 0.0010787357 0)
(0 0.0010787357 0)
(0 0.0010787357 0)
(0 0.0010787357 0)
(0 0.0010787357 0)
(0 0.0010787357 0)
(0 0.0010787357 0)
(0 0.0010787357 0)
(0 0.0010787357 0)
(0 0.0010787357 0)
(0 0.0010787357 0)
(0 0.0010787358 0)
(0 0.0018584991 0)
(0 0.0018584991 0)
(0 0.0018584991 0)
(0 0.0018584991 0)
(0 0.0018584991 0)
(0 0.0018584991 0)
(0 0.0018584991 0)
(0 0.0018584991 0)
(0 0.0018584991 0)
(0 0.0018584991 0)
(0 0.0018584991 0)
(0 0.0018584991 0)
(0 0.0018584991 0)
(0 0.0018584991 0)
(0 0.0018584991 0)
(0 0.0018584991 0)
(0 0.0018584991 0)
(0 0.0018584991 0)
(0 0.0018584991 0)
(0 0.0018584991 0)
(0 0.0018584991 0)
(0 0.0018584991 0)
(0 0.0018584991 0)
(0 0.0018584991 0)
(0 0.0018584991 0)
(0 0.0018584991 0)
(0 0.0018584991 0)
(0 0.0018584991 0)
(0 0.0018584991 0)
(0 0.0018584991 0)
(0 0.0018584991 0)
(0 0.0018584991 0)
(0 0.0018584991 0)
(0 0.0018584992 0)
(0 0.0027869023 0)
(0 0.0027869023 0)
(0 0.0027869023 0)
(0 0.0027869023 0)
(0 0.0027869023 0)
(0 0.0027869023 0)
(0 0.0027869023 0)
(0 0.0027869023 0)
(0 0.0027869023 0)
(0 0.0027869023 0)
(0 0.0027869023 0)
(0 0.0027869023 0)
(0 0.0027869023 0)
(0 0.0027869023 0)
(0 0.0027869023 0)
(0 0.0027869023 0)
(0 0.0027869023 0)
(0 0.0027869023 0)
(0 0.0027869023 0)
(0 0.0027869023 0)
(0 0.0027869023 0)
(0 0.0027869023 0)
(0 0.0027869023 0)
(0 0.0027869023 0)
(0 0.0027869023 0)
(0 0.0027869023 0)
(0 0.0027869023 0)
(0 0.0027869023 0)
(0 0.0027869023 0)
(0 0.0027869023 0)
(0 0.0027869023 0)
(0 0.0027869023 0)
(0 0.0027869023 0)
(0 0.0027869023 0)
(0 0.0038161795 0)
(0 0.0038161795 0)
(0 0.0038161795 0)
(0 0.0038161795 0)
(0 0.0038161795 0)
(0 0.0038161795 0)
(0 0.0038161795 0)
(0 0.0038161795 0)
(0 0.0038161795 0)
(0 0.0038161795 0)
(0 0.0038161795 0)
(0 0.0038161795 0)
(0 0.0038161795 0)
(0 0.0038161795 0)
(0 0.0038161795 0)
(0 0.0038161795 0)
(0 0.0038161795 0)
(0 0.0038161795 0)
(0 0.0038161795 0)
(0 0.0038161795 0)
(0 0.0038161795 0)
(0 0.0038161795 0)
(0 0.0038161795 0)
(0 0.0038161795 0)
(0 0.0038161795 0)
(0 0.0038161795 0)
(0 0.0038161795 0)
(0 0.0038161795 0)
(0 0.0038161795 0)
(0 0.0038161795 0)
(0 0.0038161795 0)
(0 0.0038161795 0)
(0 0.0038161795 0)
(0 0.0038161796 0)
(0 0.004897573 0)
(0 0.004897573 0)
(0 0.004897573 0)
(0 0.004897573 0)
(0 0.004897573 0)
(0 0.004897573 0)
(0 0.004897573 0)
(0 0.004897573 0)
(0 0.004897573 0)
(0 0.004897573 0)
(0 0.004897573 0)
(0 0.004897573 0)
(0 0.004897573 0)
(0 0.004897573 0)
(0 0.004897573 0)
(0 0.004897573 0)
(0 0.004897573 0)
(0 0.004897573 0)
(0 0.004897573 0)
(0 0.004897573 0)
(0 0.004897573 0)
(0 0.004897573 0)
(0 0.004897573 0)
(0 0.004897573 0)
(0 0.004897573 0)
(0 0.004897573 0)
(0 0.004897573 0)
(0 0.004897573 0)
(0 0.004897573 0)
(0 0.004897573 0)
(0 0.004897573 0)
(0 0.004897573 0)
(0 0.004897573 0)
(0 0.004897573 0)
(0 0.0059854372 0)
(0 0.0059854372 0)
(0 0.0059854372 0)
(0 0.0059854372 0)
(0 0.0059854372 0)
(0 0.0059854372 0)
(0 0.0059854372 0)
(0 0.0059854372 0)
(0 0.0059854372 0)
(0 0.0059854372 0)
(0 0.0059854372 0)
(0 0.0059854372 0)
(0 0.0059854372 0)
(0 0.0059854372 0)
(0 0.0059854372 0)
(0 0.0059854372 0)
(0 0.0059854372 0)
(0 0.0059854372 0)
(0 0.0059854372 0)
(0 0.0059854372 0)
(0 0.0059854372 0)
(0 0.0059854372 0)
(0 0.0059854372 0)
(0 0.0059854372 0)
(0 0.0059854372 0)
(0 0.0059854372 0)
(0 0.0059854372 0)
(0 0.0059854372 0)
(0 0.0059854372 0)
(0 0.0059854372 0)
(0 0.0059854372 0)
(0 0.0059854372 0)
(0 0.0059854372 0)
(0 0.0059854373 0)
(0 0.0070403833 0)
(0 0.0070403833 0)
(0 0.0070403833 0)
(0 0.0070403833 0)
(0 0.0070403833 0)
(0 0.0070403833 0)
(0 0.0070403833 0)
(0 0.0070403833 0)
(0 0.0070403833 0)
(0 0.0070403833 0)
(0 0.0070403833 0)
(0 0.0070403833 0)
(0 0.0070403833 0)
(0 0.0070403833 0)
(0 0.0070403833 0)
(0 0.0070403833 0)
(0 0.0070403833 0)
(0 0.0070403833 0)
(0 0.0070403833 0)
(0 0.0070403833 0)
(0 0.0070403833 0)
(0 0.0070403833 0)
(0 0.0070403833 0)
(0 0.0070403833 0)
(0 0.0070403833 0)
(0 0.0070403833 0)
(0 0.0070403833 0)
(0 0.0070403833 0)
(0 0.0070403833 0)
(0 0.0070403833 0)
(0 0.0070403833 0)
(0 0.0070403833 0)
(0 0.0070403833 0)
(0 0.0070403834 0)
(0 0.0080312219 0)
(0 0.0080312219 0)
(0 0.0080312219 0)
(0 0.0080312219 0)
(0 0.0080312219 0)
(0 0.0080312219 0)
(0 0.0080312219 0)
(0 0.0080312219 0)
(0 0.0080312219 0)
(0 0.0080312219 0)
(0 0.0080312219 0)
(0 0.0080312219 0)
(0 0.0080312219 0)
(0 0.0080312219 0)
(0 0.0080312219 0)
(0 0.0080312219 0)
(0 0.0080312219 0)
(0 0.0080312219 0)
(0 0.0080312219 0)
(0 0.0080312219 0)
(0 0.0080312219 0)
(0 0.0080312219 0)
(0 0.0080312219 0)
(0 0.0080312219 0)
(0 0.0080312219 0)
(0 0.0080312219 0)
(0 0.0080312219 0)
(0 0.0080312219 0)
(0 0.0080312219 0)
(0 0.0080312219 0)
(0 0.0080312219 0)
(0 0.0080312219 0)
(0 0.0080312219 0)
(0 0.0080312219 0)
(0 0.0089357048 0)
(0 0.0089357048 0)
(0 0.0089357048 0)
(0 0.0089357048 0)
(0 0.0089357048 0)
(0 0.0089357048 0)
(0 0.0089357048 0)
(0 0.0089357048 0)
(0 0.0089357048 0)
(0 0.0089357048 0)
(0 0.0089357048 0)
(0 0.0089357048 0)
(0 0.0089357048 0)
(0 0.0089357048 0)
(0 0.0089357048 0)
(0 0.0089357048 0)
(0 0.0089357048 0)
(0 0.0089357048 0)
(0 0.0089357048 0)
(0 0.0089357048 0)
(0 0.0089357048 0)
(0 0.0089357048 0)
(0 0.0089357048 0)
(0 0.0089357048 0)
(0 0.0089357048 0)
(0 0.0089357048 0)
(0 0.0089357048 0)
(0 0.0089357048 0)
(0 0.0089357048 0)
(0 0.0089357048 0)
(0 0.0089357048 0)
(0 0.0089357048 0)
(0 0.0089357048 0)
(0 0.0089357049 0)
(0 0.0097402506 0)
(0 0.0097402506 0)
(0 0.0097402506 0)
(0 0.0097402506 0)
(0 0.0097402506 0)
(0 0.0097402506 0)
(0 0.0097402506 0)
(0 0.0097402506 0)
(0 0.0097402506 0)
(0 0.0097402506 0)
(0 0.0097402506 0)
(0 0.0097402506 0)
(0 0.0097402506 0)
(0 0.0097402506 0)
(0 0.0097402506 0)
(0 0.0097402506 0)
(0 0.0097402506 0)
(0 0.0097402506 0)
(0 0.0097402506 0)
(0 0.0097402506 0)
(0 0.0097402506 0)
(0 0.0097402506 0)
(0 0.0097402506 0)
(0 0.0097402506 0)
(0 0.0097402506 0)
(0 0.0097402506 0)
(0 0.0097402506 0)
(0 0.0097402506 0)
(0 0.0097402506 0)
(0 0.0097402506 0)
(0 0.0097402506 0)
(0 0.0097402506 0)
(0 0.0097402506 0)
(0 0.0097402507 0)
(0 0.010438938 0)
(0 0.010438938 0)
(0 0.010438938 0)
(0 0.010438938 0)
(0 0.010438938 0)
(0 0.010438938 0)
(0 0.010438938 0)
(0 0.010438938 0)
(0 0.010438938 0)
(0 0.010438938 0)
(0 0.010438938 0)
(0 0.010438938 0)
(0 0.010438938 0)
(0 0.010438938 0)
(0 0.010438938 0)
(0 0.010438938 0)
(0 0.010438938 0)
(0 0.010438938 0)
(0 0.010438938 0)
(0 0.010438938 0)
(0 0.010438938 0)
(0 0.010438938 0)