/*--------------------------------*- C++ -*----------------------------------*\
  =========                 |
  \\      /  F ield         | OpenFOAM: The Open Source CFD Toolbox
   \\    /   O peration     | Website:  https://openfoam.org
    \\  /    A nd           | Version:  8
     \\/     M anipulation  |
\*---------------------------------------------------------------------------*/
FoamFile
{
    version     2.0;
    format      ascii;
    class       volVectorField;
    location    "10";
    object      U_0;
}
// * * * * * * * * * * * * * * * * * * * * * * * * * * * * * * * * * * * * * //

dimensions      [0 1 -1 0 0 0 0];

internalField   nonuniform List<vector> 
18474
(
(2.0000511 -0.00037001441 0)
(2.0000008 -0.00065185 0)
(2.0000253 -0.00072074084 0)
(2.0000029 -0.0008689156 0)
(2.0000138 -0.00094554423 0)
(2.0000045 -0.0010428818 0)
(2.0000078 -0.0011077819 0)
(2.0000035 -0.0011722076 0)
(2.0000035 -0.0012169171 0)
(2.0000009 -0.0012528246 0)
(1.9999994 -0.0012736821 0)
(1.9999966 -0.0012834255 1.4607138e-26)
(1.9999943 -0.0012811068 2.0364804e-24)
(1.9999919 -0.0012688627 -2.204774e-24)
(1.9999899 -0.0012475456 0)
(1.9999881 -0.0012189015 0)
(1.9999865 -0.0011843924 0)
(1.999985 -0.001145568 0)
(1.9999836 -0.0011038209 5.8514653e-23)
(1.9999824 -0.0010604069 -6.3914565e-23)
(1.9999812 -0.001016399 0)
(1.9999801 -0.00097268195 -7.8549669e-23)
(1.9999791 -0.00092993734 8.6153398e-23)
(2.0004575 -0.0012781628 0)
(2.0002109 -0.0021208469 0)
(2.0003019 -0.0023185162 0)
(2.0001798 -0.0028263419 0)
(2.0002189 -0.0030744424 0)
(2.0001589 -0.003419205 0)
(2.0001621 -0.0036438527 0)
(2.0001246 -0.0038799167 0)
(2.0001079 -0.0040457051 0)
(2.0000748 -0.0041884389 0)
(2.000047 -0.0042803212 -6.8674716e-24)
(2.0000132 -0.0043383299 -7.733735e-24)
(1.9999805 -0.0043559671 1.609658e-23)
(1.9999457 -0.004341483 0)
(1.9999112 -0.0042963551 0)
(1.9998769 -0.0042264217 4.3927198e-23)
(1.9998437 -0.0041360462 -4.7647754e-23)
(1.999812 -0.0040303213 0)
(1.9997821 -0.0039136773 -1.1769749e-22)
(1.9997544 -0.0037902309 2.5838209e-22)
(1.9997288 -0.0036634876 -1.4201588e-22)
(1.9997054 -0.0035363647 1.580221e-22)
(1.9996842 -0.0034112344 -1.7328841e-22)
(2.0011996 -0.0023452208 0)
(2.0007729 -0.0037439505 0)
(2.0008871 -0.0040679145 0)
(2.0006547 -0.0049739713 0)
(2.0006985 -0.0054055722 0)
(2.0005678 -0.0060417409 0)
(2.0005492 -0.0064520719 0)
(2.0004524 -0.0069017331 0)
(2.0003917 -0.0072221059 -5.8015203e-24)
(2.000297 -0.007511873 6.1185476e-24)
(2.0002089 -0.0077098349 2.7710735e-23)
(2.0001056 -0.0078515716 -2.949652e-23)
(2.0000011 -0.0079207303 0)
(1.9998913 -0.0079335462 7.3384661e-23)
(1.9997815 -0.0078905947 -1.5989055e-22)
(1.9996724 -0.0078025789 8.7377109e-23)
(1.9995666 -0.0076764628 0)
(1.9994654 -0.0075212787 0)
(1.9993701 -0.0073446303 -1.1958492e-22)
(1.9992812 -0.0071538078 1.3058001e-22)
(1.9991993 -0.0069549901 0)
(1.9991244 -0.0067533759 -3.2158036e-22)
(1.9990564 -0.0065532552 7.0753914e-22)
(2.0022124 -0.0035321612 0)
(2.0016305 -0.0054708864 0)
(2.0017425 -0.00591827 0)
(2.0014058 -0.0072361259 0)
(2.0014374 -0.0078563254 0)
(2.0012289 -0.0088096893 0)
(2.0011733 -0.0094228334 0)
(2.0010025 -0.010118351 0)
(2.0008779 -0.010621052 2.3455606e-23)
(2.000697 -0.01109167 -2.4713895e-23)
(2.0005196 -0.011426688 0)
(2.0003149 -0.011684425 -6.1683298e-23)
(2.0001041 -0.011834543 6.5954276e-23)
(1.9998827 -0.011902628 0)
(1.9996599 -0.011887075 0)
(1.9994379 -0.011803758 9.0983446e-23)
(1.9992221 -0.011661795 -2.9961699e-22)
(1.9990152 -0.011474384 2.184978e-22)
(1.9988199 -0.011252334 0)
(1.9986376 -0.011006373 2.7095989e-22)
(1.9984693 -0.010745595 -2.9624784e-22)
(1.9983153 -0.010477765 0)
(1.9981755 -0.010209382 -3.6499359e-22)
(2.0034716 -0.004802873 0)
(2.0027544 -0.0072574351 0)
(2.0028512 -0.0078245328 0)
(2.00242 -0.0095537632 0)
(2.0024299 -0.010364577 0)
(2.0021438 -0.011649006 0)
(2.0020421 -0.012479154 0)
(2.0017879 -0.01344351 0)
(2.0015826 -0.014150435 0)
(2.0012964 -0.01482798 0)
(2.0010057 -0.015324522 0)
(2.0006713 -0.015724857 0)
(2.0003223 -0.015980434 0)
(1.9999548 -0.016126457 0)
(1.9995824 -0.016158806 0)
(1.9992098 -0.016098292 0)
(1.9988461 -0.015955766 0)
(1.9984963 -0.015748723 0)
(1.998165 -0.015491222 0)
(1.9978552 -0.015197701 0)
(1.9975685 -0.014880445 0)
(1.9973058 -0.014550096 0)
(1.9970668 -0.0142157 0)
(2.0049463 -0.0061148965 0)
(2.0041182 -0.0090557481 0)
(2.0041928 -0.0097422758 0)
(2.0036809 -0.011872728 0)
(2.0036651 -0.012877557 -4.3471215e-24)
(2.003307 -0.01449975 4.4750234e-24)
(2.0031526 -0.015558557 -2.0321285e-23)
(2.0028104 -0.016807139 2.1161316e-23)
(2.0025128 -0.017734795 0)
(2.0021066 -0.01863885 5.3184156e-23)
(2.0016817 -0.019317226 -5.6331672e-23)
(2.0011922 -0.019880756 0)
(2.000676 -0.020260704 1.4293052e-22)
(2.0001277 -0.020502716 -1.5346245e-22)
(1.9995692 -0.020598833 0)
(1.9990078 -0.020574325 1.9431276e-22)
(1.998457 -0.020441348 -2.1072166e-22)
(1.9979251 -0.020221914 0)
(1.9974198 -0.019933401 -2.6475979e-22)
(1.9969458 -0.019594267 2.8896629e-22)
(1.9965063 -0.019220316 0)
(1.9961025 -0.018825447 3.5946754e-22)
(1.9957347 -0.018421644 -3.9374856e-22)
(2.0065935 -0.0074216796 0)
(2.0056834 -0.010809383 0)
(2.005734 -0.011614642 0)
(2.0051591 -0.014125992 0)
(2.0051176 -0.015327116 0)
(2.0046965 -0.017284241 -1.9015631e-23)
(2.0044878 -0.018578067 1.9675407e-23)
(2.0040583 -0.020117194 4.5106134e-23)
(2.0036615 -0.021277289 -4.7251794e-23)
(2.0031254 -0.022421911 0)
(2.0025498 -0.0232985 -6.0189693e-23)
(2.0018843 -0.024041579 6.4069944e-23)
(2.0011734 -0.024564573 0)
(2.0004129 -0.024920023 0)
(1.9996329 -0.025093261 0)
(1.9988448 -0.025116808 0)
(1.9980671 -0.025002291 0)
(1.9973129 -0.024776404 0)
(1.9965934 -0.024459793 0)
(1.9959162 -0.024075203 3.0908958e-22)
(1.9952865 -0.02364227 5.1472671e-24)
(1.9947066 -0.02317856 -7.5501043e-22)
(1.9941772 -0.022699445 4.1612889e-22)
(2.0083671 -0.0086810223 0)
(2.0074046 -0.012462327 0)
(2.0074344 -0.013379036 0)
(2.0068155 -0.016239597 0)
(2.0067519 -0.017631453 0)
(2.0062799 -0.019908055 1.9315567e-23)
(2.0060213 -0.02143455 -6.2028938e-23)
(2.0055096 -0.023262247 4.3778315e-23)
(2.0050127 -0.024661162 0)
(2.0043425 -0.026056017 0)
(2.0036054 -0.027145232 0)
(2.002748 -0.028085494 0)
(2.0018193 -0.028771026 0)
(2.000822 -0.029259007 -1.7111772e-22)
(1.999786 -0.029527914 1.8442161e-22)
(1.9987351 -0.029616668 0)
(1.9976912 -0.029535164 0)
(1.9966736 -0.029313936 2.6454787e-22)
(1.9956983 -0.028977123 -5.8286645e-22)
(1.9947767 -0.02855169 3.2154888e-22)
(1.9939167 -0.028061401 0)
(1.9931225 -0.027527828 0)
(1.9923956 -0.026970198 0)
(2.010217 -0.0098635838 0)
(2.0092287 -0.01397352 0)
(2.0092452 -0.014987578 0)
(2.0086003 -0.018154105 0)
(2.0085235 -0.019720146 0)
(2.0080157 -0.022288898 0)
(2.0077172 -0.024037429 0)
(2.0071342 -0.026144364 0)
(2.0065433 -0.027784044 0)
(2.0057424 -0.029436141 0)
(2.0048416 -0.030753278 -6.4184492e-23)
(2.0037842 -0.031911125 6.8333046e-23)
(2.0026236 -0.032781078 0)
(2.0013674 -0.033430975 0)
(2.0000512 -0.033825904 0)
(1.9987037 -0.034004168 0)
(1.9973578 -0.033980956 0)
(1.9960372 -0.033786066 -2.8071422e-22)
(1.9947648 -0.033447252 6.1943216e-22)
(1.9935568 -0.032995376 7.8479812e-24)
(1.9924248 -0.032458313 -3.8241833e-22)
(1.9913757 -0.031861923 -4.342104e-22)
(1.9904126 -0.031229701 4.7529319e-22)
(2.0120934 -0.010956656 0)
(2.0110996 -0.015326727 0)
(2.0111117 -0.016417574 0)
(2.0104588 -0.019840968 0)
(2.0103823 -0.021556906 -1.8417889e-23)
(2.0098571 -0.024384718 -1.1339252e-24)
(2.0095345 -0.026339482 4.2696951e-23)
(2.0088975 -0.028712313 -2.2849125e-23)
(2.008227 -0.030592839 0)
(2.0073082 -0.032509119 0)
(2.0062514 -0.034072067 0)
(2.0049969 -0.035472014 7.4449221e-23)
(2.0036009 -0.03656019 3.8930643e-24)
(2.0020732 -0.037404816 -8.9699595e-23)
(2.0004606 -0.037965074 0)
(1.9987925 -0.038274649 0)
(1.997113 -0.038345899 0)
(1.9954547 -0.038213412 2.9900422e-22)
(1.9938463 -0.037903713 -3.2568625e-22)
(1.992311 -0.037452413 -3.7537678e-22)
(1.9908651 -0.03689088 4.1002932e-22)
(1.9895193 -0.036249398 0)
(1.9882793 -0.035556095 -5.2176918e-22)
(2.013952 -0.011962785 0)
(2.0129659 -0.016529623 0)
(2.0129839 -0.017675984 0)
(2.01234 -0.021307196 0)
(2.0122806 -0.023147735 0)
(2.0117584 -0.026201662 0)
(2.011433 -0.02834637 2.2478701e-23)
(2.0107656 -0.030971748 -2.3407443e-23)
(2.0100381 -0.033093966 0)
(2.0090234 -0.035283148 0)
(2.0078295 -0.037112864 0)
(2.0063927 -0.038784781 0)
(2.0047696 -0.040129757 0)
(2.0029732 -0.041214088 0)
(2.0010548 -0.041988199 0)
(1.9990547 -0.042481861 0)
(1.9970188 -0.04269822 0)
(1.9949935 -0.042675496 0)
(1.9930156 -0.042440617 0)
(1.9911148 -0.042029541 0)
(1.9893147 -0.041478297 0)
(1.9876305 -0.040820864 0)
(1.9860715 -0.040090357 0)
(2.0157575 -0.012893897 0)
(2.0147866 -0.017605352 -1.926497e-24)
(2.0148214 -0.018789683 1.9388286e-24)
(2.0142022 -0.022586026 -8.8699959e-24)
(2.0141782 -0.024529899 9.0509672e-24)
(2.0136812 -0.02778164 -2.0995455e-23)
(2.0133778 -0.03010314 2.172138e-23)
(2.0127082 -0.032970425 0)
(2.011953 -0.035337258 0)
(2.0108729 -0.037810201 0)
(2.0095708 -0.039930029 0)
(2.0079778 -0.0419069 -8.0688063e-23)
(2.006149 -0.043552018 1.7758586e-22)
(2.0040981 -0.044927706 -9.8033726e-23)
(2.0018802 -0.045970213 -1.1724861e-22)
(1.9995442 -0.046708219 1.2680998e-22)
(1.9971442 -0.047134992 0)
(1.9947312 -0.047280115 0)
(1.992356 -0.047175788 0)
(1.9900576 -0.046857794 -2.1755799e-22)
(1.9878658 -0.046362829 2.3762174e-22)
(1.9858031 -0.045729822 0)
(1.9838837 -0.044996296 0)
(2.0174847 -0.013765973 -4.5752297e-25)
(2.0165335 -0.018581934 -3.468631e-24)
(2.0165955 -0.019792094 3.9503355e-24)
(2.0160151 -0.023720424 0)
(2.0160449 -0.025752662 0)
(2.0155957 -0.0291804 0)
(2.0153404 -0.031669856 0)
(2.0146993 -0.034771682 0)
(2.0139503 -0.037387575 0)
(2.0128412 -0.040155919 3.2891616e-23)
(2.0114681 -0.042589216 3.9296478e-23)
(2.0097549 -0.04490416 4.9666961e-24)
(2.0077528 -0.046893331 -8.9839197e-23)
(2.0054747 -0.04861333 1.0847304e-22)
(2.0029774 -0.049985934 -1.1695943e-22)
(2.000314 -0.051030107 0)
(1.9975504 -0.051734825 0)
(1.9947446 -0.052121499 0)
(1.9919546 -0.052211864 2.0697388e-22)
(1.9892315 -0.05204774 -2.258038e-22)
(1.9866171 -0.051666912 2.6502736e-22)
(1.9841395 -0.051108683 -5.8839884e-22)
(1.98182 -0.050416434 3.2685902e-22)
(2.0191169 -0.014591959 0)
(2.018189 -0.019482978 0)
(2.0182875 -0.020712399 0)
(2.0177587 -0.024748826 9.3027754e-24)
(2.0178595 -0.026860453 -9.4918949e-24)
(2.0174794 -0.03044821 0)
(2.0172981 -0.033100093 0)
(2.0167166 -0.036431089 -2.7065633e-23)
(2.0160094 -0.039300104 -1.858312e-24)
(2.0149107 -0.04237381 3.1869578e-23)
(2.013509 -0.045140783 3.8420494e-23)
(2.0117189 -0.04782334 -4.0931908e-23)
(2.0095856 -0.050196755 0)
(2.0071183 -0.052311084 0)
(2.0043738 -0.05407306 0)
(2.0014081 -0.055490609 -7.4376034e-23)
(1.9982925 -0.056540548 -4.411134e-24)
(1.9950977 -0.057239615 1.8975298e-22)
(1.9918894 -0.057603432 4.9946494e-24)
(1.988728 -0.057662174 -2.4725708e-22)
(1.9856647 -0.057458337 2.8117649e-22)
(1.9827426 -0.057036346 -3.1878044e-22)
(1.9799877 -0.056438998 1.7743279e-22)
(2.0206446 -0.015378972 9.5609539e-25)
(2.0197443 -0.02032366 -9.5447433e-25)
(2.0198869 -0.021570164 0)
(2.019421 -0.025697797 0)
(2.0196078 -0.027883925 0)
(2.0193158 -0.03161952 -1.138803e-23)
(2.0192322 -0.03442952 -1.330207e-23)
(2.0187393 -0.037984219 5.4023501e-23)
(2.0181087 -0.041107769 1.941218e-24)
(2.0170603 -0.044492564 -3.2878236e-23)
(2.0156746 -0.047607315 0)
(2.0138549 -0.050679976 0)
(2.0116389 -0.053470283 0)
(2.0090295 -0.056021695 0)
(2.0060808 -0.058225869 0)
(2.0028495 -0.060078938 0)
(1.9994107 -0.061543462 0)
(1.995842 -0.062625842 0)
(1.9922217 -0.063334081 1.1858971e-22)
(1.9886207 -0.06369735 -1.293919e-22)
(1.9850992 -0.06374489 0)
(1.9817085 -0.0635224 0)
(1.9784897 -0.063083695 0)
(2.0220633 -0.016129214 0)
(2.0211962 -0.021111307 2.1168503e-24)
(2.0213888 -0.022375074 -2.1290346e-24)
(2.0209952 -0.026581254 0)
(2.0212797 -0.028838793 0)
(2.0210918 -0.032711607 0)
(2.0211262 -0.035674626 0)
(2.0207474 -0.039445581 -1.4380932e-23)
(2.0202252 -0.042820696 1.5077142e-23)
(2.0192649 -0.04651623 0)
(2.017939 -0.049984749 0)
(2.0161383 -0.05346056 0)
(2.0138916 -0.056689976 0)
(2.0111929 -0.059710743 0)
(2.0080915 -0.062399904 0)
(2.0046417 -0.064741562 0)
(2.0009205 -0.066683549 0)
(1.9970101 -0.068218984 0)
(1.9929973 -0.069344918 0)
(1.9889641 -0.070081825 0)
(1.9849855 -0.070461552 0)
(1.9811196 -0.070519127 0)
(1.9774184 -0.07030344 2.1608253e-22)
(2.0233723 -0.016841395 -1.011443e-24)
(2.0225444 -0.021847597 1.0090342e-24)
(2.0227912 -0.023129456 4.6874149e-24)
(2.0224775 -0.027403575 -4.7483454e-24)
(2.0228682 -0.029729436 1.1052444e-23)
(2.0227967 -0.033728787 7.7031585e-25)
(2.0229651 -0.036837664 7.9731567e-25)
(2.0227214 -0.04081438 -1.3909392e-23)
(2.0223349 -0.044432943 -1.6590455e-23)
(2.0214961 -0.048432071 1.7499263e-23)
(2.0202709 -0.05225149 0)
(2.0185359 -0.056133024 -2.4240287e-23)
(2.0163109 -0.059811883 5.3786592e-23)
(2.0135786 -0.063321689 -6.202297e-23)
(2.0103813 -0.066526083 3.4633307e-23)
(2.0067683 -0.069397502 0)
(2.0028156 -0.071868757 0)
(1.9986081 -0.073919198 0)
(1.9942384 -0.07553227 6.6983743e-23)
(1.9897979 -0.076718069 -7.3098083e-23)
(1.9853721 -0.077499379 -8.9027213e-23)
(1.9810369 -0.077910618 9.7326047e-23)
(1.9768498 -0.077999024 1.1675651e-22)
(2.0245729 -0.017512525 -1.0453473e-24)
(2.0237909 -0.022531299 3.3047086e-24)
(2.024094 -0.02383168 -2.2746041e-24)
(2.0238661 -0.028163874 0)
(2.0243678 -0.030554002 0)
(2.0244216 -0.034668354 0)
(2.0247352 -0.037913485 0)
(2.0246428 -0.042082261 0)
(2.0244139 -0.04593123 0)
(2.0237248 -0.050220363 -1.9290691e-23)
(2.0226357 -0.054379422 2.0461798e-23)
(2.0210092 -0.058659065 0)
(2.0188556 -0.06278579 0)
(2.016145 -0.066791117 0)
(2.012911 -0.070527064 0)
(2.009195 -0.073955613 0)
(2.0050695 -0.076994792 0)
(2.0006193 -0.079609807 0)
(1.9959409 -0.081769541 0)
(1.9911327 -0.083471061 0)
(1.9862902 -0.084726168 0)
(1.9814998 -0.085562728 0)
(1.9768341 -0.086024982 0)
(2.0256684 -0.018139431 0)
(2.0249385 -0.023160533 0)
(2.0252985 -0.024479058 0)
(2.0251602 -0.028859671 0)
(2.0257749 -0.031308796 0)
(2.0259594 -0.035525685 0)
(2.026425 -0.038895337 0)
(2.026495 -0.04323982 0)
(2.0264395 -0.04730216 -1.7669438e-23)
(2.0259222 -0.051862399 1.8642098e-23)
(2.0249987 -0.056342793 0)
(2.0235174 -0.061004052 -2.5755406e-23)
(2.0214799 -0.065566274 2.7583872e-23)
(2.0188429 -0.070061091 0)
(2.0156301 -0.074331023 3.9843683e-23)
(2.011873 -0.078329419 -4.3131758e-23)
(2.0076378 -0.081960576 -5.4302398e-23)
(2.0030065 -0.085175754 -4.4054044e-24)
(1.9980766 -0.087928658 6.919047e-23)
(1.9929517 -0.090202359 8.6435353e-23)
(1.9877349 -0.0919962 -9.4450012e-23)
(1.9825225 -0.093327903 0)
(1.9773988 -0.094236217 6.7132087e-23)
(2.0266633 -0.018719711 0)
(2.025991 -0.023734181 0)
(2.0264068 -0.025069673 -2.6255519e-24)
(2.0263606 -0.029489234 2.6596351e-24)
(2.027087 -0.031991104 0)
(2.0274047 -0.036297494 0)
(2.028025 -0.039778524 0)
(2.028264 -0.04428063 0)
(2.0283923 -0.04853661 0)
(2.0280626 -0.053345292 -1.024963e-23)
(2.027327 -0.058123495 1.0874716e-23)
(2.026021 -0.063142922 -1.3239821e-23)
(2.0241379 -0.068119403 2.9403644e-23)
(2.0216208 -0.073086816 -1.637076e-23)
(2.018483 -0.077880493 0)
(2.0147446 -0.082447323 2.3976218e-23)
(2.0104638 -0.08667953 2.0710826e-24)
(2.0057166 -0.090515431 -6.3543174e-23)
(2.0005991 -0.093893597 7.4608596e-23)
(1.995217 -0.09678239 -4.2215236e-23)
(1.9896794 -0.0991674 5.2880641e-23)
(1.984091 -0.10105454 -5.7831543e-23)
(1.9785463 -0.10247359 0)
(2.0275631 -0.019252204 0)
(2.0269529 -0.024252498 -1.2756567e-24)
(2.027422 -0.025603195 4.0224314e-24)
(2.0274688 -0.030052642 -2.7752592e-24)
(2.0283037 -0.032600466 0)
(2.0287544 -0.036983291 0)
(2.0295283 -0.040561964 0)
(2.0299388 -0.045202894 0)
(2.0302558 -0.04963143 0)
(2.0301238 -0.054663745 0)
(2.0295916 -0.059712943 1.1928532e-23)
(2.0284836 -0.065062281 8.7088486e-25)
(2.0267852 -0.07042519 -1.4561172e-23)
(2.0244272 -0.075839675 0)
(2.0214118 -0.081136171 0)
(2.0177472 -0.086257419 0)
(2.0134819 -0.091085615 0)
(2.0086838 -0.095547713 0)
(2.0034451 -0.099567955 0)
(1.9978708 -0.10309994 0)
(1.9920734 -0.10611461 0)
(1.986164 -0.10860473 0)
(1.9802458 -0.11058925 0)
(2.0283738 -0.019736993 0)
(2.0278291 -0.024717133 0)
(2.0283481 -0.026080959 0)
(2.0284876 -0.0305519 0)
(2.0294257 -0.03313881 -3.3543469e-24)
(2.0300073 -0.03758548 -2.1088601e-25)
(2.0309309 -0.041248211 3.7880407e-24)
(2.0315121 -0.046009346 0)
(2.0320183 -0.050589188 -4.8704394e-24)
(2.0320888 -0.055819626 5.1402417e-24)
(2.0317691 -0.0611115 0)
(2.0308747 -0.066759759 0)
(2.0293841 -0.072477021 0)
(2.0272162 -0.078306912 0)
(2.0243632 -0.084077113 0)
(2.0208209 -0.089728456 2.5188044e-23)
(2.016627 -0.095135353 -2.7352627e-23)
(2.0118401 -0.10021533 -1.748806e-23)
(2.0065459 -0.10487969 -1.5876961e-24)
(2.0008465 -0.10906789 2.255969e-23)
(1.9948548 -0.11273606 2.873319e-23)
(1.9886862 -0.11586291 -6.5178823e-23)
(1.9824505 -0.11845488 3.6952997e-23)
(2.0291019 -0.020175417 0)
(2.0286254 -0.025131022 -6.9876557e-25)
(2.0291895 -0.026505816 -7.9743466e-25)
(2.0294206 -0.030990847 -1.0711926e-25)
(2.0304551 -0.0336103 1.6599867e-24)
(2.0311641 -0.038109207 0)
(2.0322309 -0.041843181 4.1552443e-24)
(2.0329792 -0.046706894 -8.8983002e-24)
(2.0336708 -0.051417613 -2.485544e-25)
(2.0339439 -0.056821232 5.3194911e-24)
(2.03384 -0.062327487 -6.3019005e-24)
(2.0331679 -0.068242794 6.7223245e-24)
(2.0318997 -0.074280214 8.1644617e-24)
(2.0299445 -0.08049005 -1.8204277e-23)
(2.0272846 -0.086699095 2.1128308e-23)
(2.0239038 -0.092848262 -2.4703834e-23)
(2.019829 -0.098806426 2.9060413e-23)
(2.0151083 -0.10448379 -1.6459001e-23)
(2.0098194 -0.10978046 0)
(2.004059 -0.11462295 -2.5087794e-23)
(1.9979384 -0.11895301 2.7433029e-23)
(1.9915746 -0.12273505 0)
(1.985082 -0.12596191 4.1149403e-23)
(1.9999782 -0.00088658151 0)
(1.9999772 -0.00084140036 0)
(1.9999763 -0.0007953506 0)
(1.9999754 -0.0007487846 1.9460189e-22)
(1.9999746 -0.00070202837 -2.0179716e-22)
(1.9999738 -0.00065539363 2.1108535e-22)
(1.9999731 -0.00060916789 6.1432903e-25)
(1.9999725 -0.00056361161 -2.2950299e-22)
(1.9999719 -0.00051895469 0)
(1.9999714 -0.00047539683 0)
(1.9999709 -0.00043310538 0)
(1.9999705 -0.00039221944 2.7577218e-22)
(1.9999702 -0.00035284228 -2.8852896e-22)
(1.9999699 -0.00031505991 0)
(1.9999697 -0.00027892888 0)
(1.9999695 -0.00024447645 0)
(1.9999694 -0.00021171994 0)
(1.9999693 -0.00018065618 0)
(1.9999692 -0.00015126689 3.7634914e-22)
(1.9999692 -0.00012352227 -3.9147497e-22)
(1.9999692 -9.7381509e-05 -4.0622202e-22)
(1.9999692 -7.2788708e-05 4.2051681e-22)
(1.9999692 -4.9702977e-05 4.3382521e-22)
(1.9999692 -2.8074182e-05 -4.4623953e-22)
(1.9999693 -7.8347864e-06 4.5702141e-22)
(1.9999693 1.1093345e-05 -1.5406913e-25)
(1.9999694 2.8854192e-05 -4.7620191e-22)
(1.9996642 -0.0032836814 -1.7521614e-22)
(1.9996447 -0.0031499718 1.8061164e-22)
(1.999626 -0.0030130533 0)
(1.9996084 -0.002874043 -1.9588344e-22)
(1.9995917 -0.0027339689 -7.7079021e-25)
(1.9995762 -0.0025938254 4.2434086e-22)
(1.9995617 -0.0024545282 -2.2113084e-22)
(1.9995483 -0.0023169128 -2.3165031e-22)
(1.9995359 -0.0021817271 2.4167619e-22)
(1.9995246 -0.0020495954 0)
(1.9995142 -0.0019211046 0)
(1.9995048 -0.0017966779 0)
(1.9994963 -0.0016766996 0)
(1.9994886 -0.0015614688 3.0443718e-22)
(1.9994817 -0.0014511324 1.6965682e-25)
(1.9994754 -0.0013458558 -6.6636576e-22)
(1.9994699 -0.0012457067 3.4812878e-22)
(1.9994649 -0.0011506816 -3.6338848e-22)
(1.9994604 -0.0010607513 -4.6665599e-27)
(1.9994564 -0.00097580418 7.8751777e-22)
(1.9994528 -0.00089574609 -5.8193991e-26)
(1.9994497 -0.00082050501 -8.4207171e-26)
(1.9994468 -0.00074991246 -1.0761596e-25)
(1.9994443 -0.00068375045 -8.969117e-22)
(1.9994421 -0.0006218359 9.186921e-22)
(1.9994401 -0.00056395346 -4.6864569e-22)
(1.9994384 -0.00050980404 4.7822598e-22)
(1.9989921 -0.006347985 -3.5457761e-22)
(1.9989292 -0.0061316117 0)
(1.9988693 -0.0059089938 0)
(1.9988124 -0.0056820554 0)
(1.9987587 -0.0054525816 0)
(1.9987084 -0.0052223033 -4.3365e-22)
(1.9986615 -0.0049928183 9.0378267e-22)
(1.998618 -0.0047655902 -4.7156269e-22)
(1.9985778 -0.0045419304 4.9445431e-22)
(1.9985409 -0.0043229197 -1.0336428e-21)
(1.9985071 -0.0041095809 5.4062894e-22)
(1.9984763 -0.0039027325 5.6704116e-22)
(1.9984483 -0.0037029916 -5.930827e-22)
(1.9984229 -0.0035109002 -6.2163753e-22)
(1.9983999 -0.0033267747 6.5008242e-22)
(1.9983792 -0.0031507366 6.8032731e-22)
(1.9983606 -0.0029831325 -7.1051007e-22)
(1.9983438 -0.002823934 -7.4164414e-22)
(1.9983287 -0.0026729752 7.7250523e-22)
(1.9983152 -0.0025301304 0)
(1.998303 -0.0023952295 0)
(1.9982921 -0.0022683208 0)
(1.9982824 -0.0021491364 0)
(1.9982736 -0.002037248 0)
(1.9982658 -0.0019323996 0)
(1.9982588 -0.0018342247 0)
(1.9982527 -0.0017422367 -9.7448575e-22)
(1.9980429 -0.0099320198 3.6460664e-22)
(1.9979135 -0.0096377205 0)
(1.9977899 -0.0093332082 0)
(1.9976725 -0.0090212676 0)
(1.9975619 -0.008704503 4.2897542e-22)
(1.9974581 -0.0083854492 -4.4553863e-22)
(1.9973614 -0.0080664611 -4.6715296e-22)
(1.9972717 -0.0077497062 9.7483248e-22)
(1.9971889 -0.0074371554 -5.0916614e-22)
(1.9971128 -0.0071303975 5.3431505e-22)
(1.9970432 -0.0068309638 -5.5824393e-22)
(1.9969798 -0.006540238 0)
(1.9969222 -0.0062589956 0)
(1.99687 -0.0059881071 0)
(1.9968229 -0.0057282334 -6.719171e-22)
(1.9967804 -0.0054796559 7.0209664e-22)
(1.9967422 -0.0052425515 0)
(1.9967078 -0.0050171771 -7.6566523e-22)
(1.996677 -0.0048034893 7.9727231e-22)
(1.9966493 -0.0046013617 0)
(1.9966245 -0.0044103412 0)
(1.9966022 -0.004229935 0)
(1.9965822 -0.004060576 0)
(1.9965644 -0.00390193 0)
(1.9965485 -0.0037533342 0)
(1.9965344 -0.0036142699 0)
(1.9965218 -0.0034840742 0)
(1.9968401 -0.013867343 0)
(1.9966185 -0.013495189 0)
(1.9964065 -0.013107862 0)
(1.996205 -0.012709108 0)
(1.9960149 -0.012302449 0)
(1.9958365 -0.011891334 0)
(1.99567 -0.011478987 0)
(1.9955155 -0.011068384 0)
(1.9953727 -0.010662221 0)
(1.9952415 -0.010262889 0)
(1.9951214 -0.0098723253 0)
(1.9950118 -0.0094923393 0)
(1.9949123 -0.0091244294 0)
(1.994822 -0.0087696019 0)
(1.9947405 -0.0084286845 7.0298278e-22)
(1.994667 -0.0081023639 -7.3434118e-22)
(1.9946009 -0.0077911005 -7.6781654e-22)
(1.9945414 -0.0074949545 -4.8882436e-25)
(1.9944881 -0.0072137438 8.3374882e-22)
(1.9944403 -0.0069475911 0)
(1.9943974 -0.0066963959 8.9900639e-22)
(1.9943591 -0.0064596179 1.0861117e-25)
(1.9943247 -0.0062364987 2.2669991e-26)
(1.9942939 -0.0060264517 -6.586153e-26)
(1.9942664 -0.005829692 -2.0172077e-21)
(1.9942419 -0.0056457369 1.0285631e-21)
(1.9942201 -0.0054737196 1.0493284e-21)
(1.9953853 -0.017997587 0)
(1.9950431 -0.017541496 4.1700497e-22)
(1.9947154 -0.01706404 -4.3058547e-22)
(1.9944038 -0.016570062 0)
(1.9941093 -0.016064144 4.7197356e-22)
(1.9938328 -0.015550801 -4.9008544e-22)
(1.9935746 -0.015034279 5.1535997e-22)
(1.9933348 -0.014518523 2.4903239e-24)
(1.9931133 -0.014007106 2.2940638e-24)
(1.9929096 -0.013503211 -5.8903011e-22)
(1.9927231 -0.01300961 6.1925676e-22)
(1.9925529 -0.0125287 -6.4705028e-22)
(1.9923983 -0.012062134 0)
(1.9922583 -0.011611655 0)
(1.9921318 -0.011178725 0)
(1.9920179 -0.010763801 0)
(1.9919154 -0.010367505 0)
(1.9918235 -0.0099903585 0)
(1.9917411 -0.0096324103 0)
(1.9916673 -0.0092932978 -9.185557e-22)
(1.9916012 -0.0089726903 9.5204013e-22)
(1.9915422 -0.0086704364 9.8489974e-22)
(1.9914894 -0.0083861534 -1.0152349e-21)
(1.9914422 -0.0081192134 0)
(1.9914001 -0.0078685227 0)
(1.9913625 -0.0076331859 -1.0891395e-21)
(1.9913289 -0.0074128407 1.1113299e-21)
(1.9936733 -0.022192187 0)
(1.9931792 -0.021642883 0)
(1.9927053 -0.021064445 0)
(1.992254 -0.020462987 0)
(1.9918272 -0.019844317 5.0302569e-22)
(1.991426 -0.019214213 -5.2227815e-22)
(1.9910511 -0.018578145 0)
(1.9907028 -0.017941227 0)
(1.9903808 -0.017308121 0)
(1.9900847 -0.016682994 0)
(1.9898136 -0.016069491 0)
(1.9895663 -0.015470746 -6.9511542e-22)
(1.9893417 -0.014889376 7.2635327e-22)
(1.9891383 -0.014327377 -7.6306741e-22)
(1.9889547 -0.013786219 7.9713599e-22)
(1.9887894 -0.013267365 0)
(1.988641 -0.012771727 0)
(1.9885079 -0.012299373 0)
(1.9883887 -0.011850654 0)
(1.9882822 -0.011425738 0)
(1.988187 -0.011024177 1.0219834e-21)
(1.988102 -0.01064525 5.3368306e-25)
(1.988026 -0.01028835 -1.089156e-21)
(1.9879583 -0.009952909 0)
(1.9878979 -0.0096383512 0)
(1.9878441 -0.0093437399 -1.1687095e-21)
(1.9877963 -0.0090677126 1.192368e-21)
(1.9917022 -0.026374481 -4.5473293e-22)
(1.9910208 -0.025724517 -5.6476331e-24)
(1.9903663 -0.025035596 9.8476794e-22)
(1.989742 -0.024315261 -5.1220758e-22)
(1.9891506 -0.023570727 0)
(1.9885941 -0.022809249 0)
(1.9880737 -0.02203775 5.9369182e-22)
(1.9875898 -0.021262755 -6.1810965e-22)
(1.9871423 -0.020490255 6.5258314e-22)
(1.9867306 -0.019725645 -1.3652995e-21)
(1.9863535 -0.018973669 1.4325932e-21)
(1.9860098 -0.018238408 -1.5030101e-21)
(1.9856975 -0.017523293 7.867673e-22)
(1.985415 -0.016831144 0)
(1.9851601 -0.016164207 0)
(1.9849308 -0.015523825 0)
(1.984725 -0.014911128 -9.4756854e-22)
(1.9845407 -0.01432731 -1.6478649e-24)
(1.984376 -0.01377247 -1.4415943e-24)
(1.9842288 -0.013246153 1.0693183e-21)
(1.9840974 -0.012748466 1.1101513e-21)
(1.9839803 -0.012279183 -1.147222e-21)
(1.983876 -0.011837298 0)
(1.9837831 -0.011421789 0)
(1.9837004 -0.011031732 0)
(1.983627 -0.010666123 0)
(1.9835618 -0.010323732 1.2959096e-21)
(1.9894914 -0.030546775 0)
(1.9885838 -0.02979475 0)
(1.98771 -0.028991263 -5.3542718e-22)
(1.9868749 -0.028145409 1.1144985e-21)
(1.9860825 -0.027265967 -1.1684367e-21)
(1.9853356 -0.026361883 1.2258127e-21)
(1.9846362 -0.025441789 5.8479573e-24)
(1.9839853 -0.024513893 -6.7279309e-22)
(1.9833828 -0.023585806 0)
(1.9828282 -0.022664433 -7.4777686e-22)
(1.9823201 -0.021755904 7.8058931e-22)
(1.9818568 -0.020865531 0)
(1.9814361 -0.019997812 8.6483963e-22)
(1.9810555 -0.019156446 -9.0339867e-22)
(1.9807123 -0.018344399 0)
(1.9804038 -0.017563961 0)
(1.9801272 -0.016816779 0)
(1.9798797 -0.016103425 0)
(1.9796586 -0.015424628 0)
(1.9794613 -0.014781149 0)
(1.9792856 -0.014172236 0)
(1.9791292 -0.013596921 -1.2618237e-21)
(1.9789901 -0.013054985 1.3000836e-21)
(1.9788666 -0.01254575 0)
(1.9787571 -0.012067772 0)
(1.97866 -0.011619634 1.3968449e-21)
(1.9785741 -0.011199851 4.9230066e-25)
(1.987089 -0.0347961 -9.240866e-24)
(1.9859128 -0.033949017 5.4694196e-22)
(1.9847771 -0.033034562 0)
(1.9836889 -0.032063435 -6.1163562e-22)
(1.9826538 -0.03104609 6.3388065e-22)
(1.9816763 -0.02999337 0)
(1.9807593 -0.028915869 0)
(1.9799045 -0.027823791 0)
(1.9791125 -0.026726694 -7.8375118e-22)
(1.9783826 -0.025633347 -6.5143201e-24)
(1.9777136 -0.024551607 8.6010809e-22)
(1.9771032 -0.02348836 0)
(1.9765488 -0.022449491 0)
(1.9760472 -0.021439903 0)
(1.9755951 -0.020463548 0)
(1.9751888 -0.019523506 1.1022107e-21)
(1.9748248 -0.018622089 -1.1492435e-21)
(1.9744993 -0.017760913 1.2040945e-21)
(1.9742088 -0.016940742 -1.2521412e-21)
(1.97395 -0.016161501 0)
(1.9737197 -0.015423536 -1.3545834e-21)
(1.9735153 -0.014726871 2.8011742e-21)
(1.9733338 -0.014069969 -2.8898828e-21)
(1.9731731 -0.013451478 1.4848834e-21)
(1.9730308 -0.012870774 -1.5224861e-21)
(1.9729052 -0.012326565 -1.0613315e-24)
(1.9727944 -0.011816827 3.1699897e-21)
(1.9845692 -0.039273147 -2.8889782e-22)
(1.9830788 -0.038347268 2.9771565e-22)
(1.9816346 -0.037333968 0)
(1.9802463 -0.036245494 0)
(1.9789219 -0.035094017 -3.531438e-22)
(1.9776678 -0.033892435 3.6658705e-22)
(1.9764885 -0.032653556 3.9156173e-22)
(1.975387 -0.031389897 -4.0759343e-22)
(1.9743646 -0.030113348 0)
(1.9734211 -0.028834946 0)
(1.9725552 -0.0275647 0)
(1.9717645 -0.026311486 -5.0663296e-22)
(1.9710458 -0.025082983 5.2914937e-22)
(1.9703954 -0.023885674 0)
(1.969809 -0.022724874 0)
(1.9692821 -0.02160479 0)
(1.9688101 -0.020528612 0)
(1.9683883 -0.019498629 6.7377019e-22)
(1.9680122 -0.018516375 -7.006231e-22)
(1.9676776 -0.017582663 0)
(1.9673803 -0.016697219 7.5919287e-22)
(1.9671167 -0.015859499 -1.5702817e-21)
(1.9668833 -0.015069494 8.0968912e-22)
(1.9666771 -0.014326169 0)
(1.9664951 -0.013627358 -8.5464362e-22)
(1.9663347 -0.012971329 8.7140443e-22)
(1.9661935 -0.012356692 -8.9055886e-22)
(1.9820249 -0.044151566 -3.1549343e-22)
(1.9801727 -0.043172701 -7.3146097e-24)
(1.9783701 -0.042081584 6.9372552e-22)
(1.9766303 -0.040891815 -3.6257486e-22)
(1.9749645 -0.039617198 3.9013884e-22)
(1.9733819 -0.038272764 -4.0499029e-22)
(1.9718894 -0.036873736 0)
(1.9704915 -0.035435267 0)
(1.9691909 -0.033971974 -4.8421974e-22)
(1.9679883 -0.032497625 1.0158846e-21)
(1.9668827 -0.031024876 -1.0718437e-21)
(1.9658717 -0.029565098 5.6247468e-22)
(1.9649518 -0.028128264 5.9774506e-22)
(1.9641185 -0.026722914 -6.2427755e-22)
(1.9633668 -0.025356163 6.6076679e-22)
(1.9626912 -0.024033761 -6.8950427e-22)
(1.9620859 -0.022760178 -7.2653258e-22)
(1.9615451 -0.021538719 -3.2803652e-24)
(1.9610632 -0.020371647 -2.9820171e-24)
(1.9606347 -0.019260352 -2.6941742e-24)
(1.9602546 -0.018205512 -2.4198962e-24)
(1.9599181 -0.017207051 8.8648119e-22)
(1.9596206 -0.016263532 -9.1752454e-22)
(1.9593581 -0.015374242 9.4241037e-22)
(1.9591271 -0.014538709 0)
(1.958924 -0.013754403 0)
(1.9587457 -0.013018549 0)
(1.9795612 -0.04958378 0)
(1.9772984 -0.048587599 0)
(1.9750853 -0.047449183 0)
(1.9729392 -0.046183055 0)
(1.9708755 -0.044804392 0)
(1.9689069 -0.043330296 0)
(1.9670434 -0.041778512 0)
(1.9652924 -0.040167089 0)
(1.9636584 -0.038513758 -5.4215133e-22)
(1.9621435 -0.0368355 -7.7126546e-24)
(1.9607477 -0.03514817 1.2038357e-21)
(1.9594688 -0.033466216 -6.3235966e-22)
(1.9583033 -0.031802499 0)
(1.9572461 -0.030168195 0)
(1.9562914 -0.02857277 0)
(1.9554326 -0.027024018 0)
(1.9546629 -0.025528149 -8.2383687e-22)
(1.9539751 -0.024089904 8.5797222e-22)
(1.9533623 -0.022712697 0)
(1.9528177 -0.021398766 0)
(1.9523349 -0.020149349 0)
(1.9519079 -0.018964917 0)
(1.951531 -0.017845157 0)
(1.9511989 -0.016788691 0)
(1.9509069 -0.015793783 0)
(1.9506507 -0.01485936 0)
(1.9504263 -0.013982983 0)
(1.977288 -0.055667901 -1.8876585e-22)
(1.9745674 -0.054700409 1.9454848e-22)
(1.9718913 -0.053555466 0)