/*--------------------------------*- C++ -*----------------------------------*\
  =========                 |
  \\      /  F ield         | OpenFOAM: The Open Source CFD Toolbox
   \\    /   O peration     | Website:  https://openfoam.org
    \\  /    A nd           | Version:  8
     \\/     M anipulation  |
\*---------------------------------------------------------------------------*/
FoamFile
{
    version     2.0;
    format      ascii;
    class       surfaceVectorField;
    location    "10";
    object      Uf_0;
}
// * * * * * * * * * * * * * * * * * * * * * * * * * * * * * * * * * * * * * //

dimensions      [0 1 -1 0 0 0 0];

internalField   nonuniform List<vector> 
36597
(
(2.0000259 -0.00056041273 0)
(2.0002547 -0.000825696 0)
(2.0000131 -0.0006569075 0)
(2.0000972 -0.0013889486 0)
(2.000014 -0.00081416836 0)
(2.0001606 -0.0015224565 0)
(2.0000084 -0.00089567402 0)
(2.0000849 -0.0018510933 0)
(2.0000091 -0.0010009463 0)
(2.0001126 -0.0020137614 0)
(2.0000062 -0.0010706366 0)
(2.000077 -0.0022352495 0)
(2.0000056 -0.0011415881 0)
(2.0000815 -0.0023803061 0)
(2.0000035 -0.0011921035 0)
(2.0000607 -0.0025308548 0)
(2.0000022 -0.0012342327 0)
(2.0000532 -0.002636318 0)
(2.0000001 -0.0012611375 0)
(2.0000359 -0.0027257746 0)
(1.999998 -0.0012767034 7.54009e-27)
(2.0000221 -0.00278207 -3.4453124e-24)
(1.9999954 -0.0012797069 1.060328e-24)
(2.0000045 -0.0028158602 -3.8722014e-24)
(1.999993 -0.0012722092 -1.6267207e-25)
(1.9999879 -0.0028234258 9.0888848e-24)
(1.9999908 -0.0012549985 -1.0601076e-24)
(1.99997 -0.0028099677 -1.0989464e-24)
(1.999989 -0.0012297148 0)
(1.9999525 -0.0027766475 0)
(1.9999873 -0.0011978232 0)
(1.9999351 -0.0027272588 2.2030744e-23)
(1.9999857 -0.0011608934 0)
(1.9999182 -0.0026647132 -2.3896422e-23)
(1.9999843 -0.0011203739 3.0565686e-23)
(1.9999022 -0.0025923327 0)
(1.9999829 -0.0010775973 -5.5443304e-24)
(1.9998871 -0.0025130289 -2.9859817e-23)
(1.9999817 -0.0010337198 -3.0450913e-23)
(1.999873 -0.0024294891 9.7726119e-23)
(1.9999806 -0.00098971681 -4.1167203e-23)
(1.99986 -0.0023440035 -7.1225767e-23)
(1.9999796 -0.00094637457 7.880305e-24)
(1.9998482 -0.0022584742 4.0100792e-23)
(1.9998374 -0.0021744293 -4.3969371e-23)
(1.9999786 -0.00090430974 4.3075797e-23)
(2.0003338 -0.0017710588 0)
(2.0008352 -0.0018153323 0)
(2.0002567 -0.0021725491 0)
(2.0004987 -0.0029379363 0)
(2.0002402 -0.0026058282 0)
(2.0005998 -0.0031991838 0)
(2.0001996 -0.0029314351 0)
(2.0004217 -0.0039074837 0)
(2.0001884 -0.0032609883 0)
(2.0004626 -0.0042479605 0)
(2.0001605 -0.0035248153 0)
(2.0003665 -0.0047394203 0)
(2.0001429 -0.0037675539 0)
(2.0003584 -0.0050575432 0)
(2.0001161 -0.0039604789 0)
(2.0002907 -0.0054010931 0)
(2.0000909 -0.0041186855 0)
(2.0002515 -0.0056444118 -2.9199493e-24)
(2.0000605 -0.0042328121 -3.5355611e-24)
(2.000187 -0.0058608656 3.0789906e-24)
(2.0000295 -0.0043085537 -7.3109061e-24)
(2.0001284 -0.006005903 1.0530775e-23)
(1.9999963 -0.0043447098 4.6001189e-24)
(2.0000585 -0.0061058687 -1.8682759e-23)
(1.9999625 -0.0043460044 7.7567458e-24)
(1.9999896 -0.006149397 7.9984016e-24)
(1.9999278 -0.0043152511 0)
(1.9999166 -0.006148697 3.6920784e-23)
(1.9998934 -0.0042571214 2.284395e-23)
(1.9998437 -0.0061047164 -8.044536e-23)
(1.9998596 -0.0041762953 -3.798762e-24)
(1.9997713 -0.0060257384 6.5788696e-23)
(1.9998272 -0.0040777195 -2.2791772e-23)
(1.9997012 -0.0059174326 -2.367344e-23)
(1.9997964 -0.0039660738 -6.1481135e-23)
(1.9996342 -0.0057868722 0)
(1.9997676 -0.0038456725 7.9052377e-23)
(1.9995711 -0.0056400831 -1.1864722e-22)
(1.9997409 -0.0037202995 4.8678789e-23)
(1.9995123 -0.0054827782 1.9407226e-22)
(1.9997164 -0.0035931696 1.5237957e-23)
(1.9994582 -0.0053198077 -7.0551932e-23)
(1.9996942 -0.003466909 -1.5843882e-23)
(1.9994087 -0.005155237 -8.3324629e-23)
(1.9993638 -0.0049924033 2.6997317e-22)
(1.9996741 -0.0033435856 -1.7425235e-22)
(2.0009855 -0.0031308323 0)
(2.0017098 -0.0029446627 0)
(2.0008304 -0.003847268 0)
(2.0012054 -0.004616107 0)
(2.0007697 -0.0045655181 0)
(2.001318 -0.0050024017 0)
(2.0006769 -0.0051648072 0)
(2.0010332 -0.00611643 0)
(2.0006321 -0.0057450909 0)
(2.0010706 -0.0066432791 0)
(2.0005583 -0.0062384329 0)
(2.0009006 -0.0074396412 0)
(2.0004998 -0.0066871251 0)
(2.0008632 -0.0079522358 0)
(2.0004213 -0.0070598698 -2.9715678e-24)
(2.000729 -0.0085256403 0)
(2.0003431 -0.0073714062 3.1805742e-25)
(2.0006359 -0.0089377072 8.9658681e-24)
(2.0002517 -0.0076101869 1.7230523e-23)
(2.0004975 -0.0093185313 -9.4420229e-24)
(2.0001556 -0.0077816861 -1.8122889e-24)
(2.0003643 -0.0095856838 1.3725476e-23)
(2.0000515 -0.0078843808 -1.4245016e-23)
(2.0002081 -0.0097860126 -4.5741185e-23)
(1.9999442 -0.0079250823 3.8024519e-23)
(2.0000516 -0.0098960874 3.3288062e-23)
(1.9998343 -0.0079084372 -4.777064e-23)
(1.9998856 -0.0099368591 3.6345249e-23)
(1.9997247 -0.0078420491 -3.1242914e-23)
(1.9997188 -0.0099078002 -7.9186518e-23)
(1.9996172 -0.0077338875 4.1859575e-23)
(1.9995529 -0.0098222195 8.9197449e-23)
(1.9995138 -0.0075924111 0)
(1.9993917 -0.009688167 -1.5123976e-22)
(1.9994155 -0.0074257534 -6.2472012e-23)
(1.9992373 -0.0095167746 1.1029595e-22)
(1.9993235 -0.0072414595 1.1320084e-23)
(1.9990916 -0.0093172638 -5.9217692e-23)
(1.9992382 -0.0070462066 6.220519e-23)
(1.9989558 -0.0090986592 2.0144656e-22)
(1.9991599 -0.0068457032 -1.6855555e-22)
(1.9988304 -0.0088686105 -1.4955552e-22)
(1.9990886 -0.0066446536 2.1844445e-22)
(1.9987157 -0.0086336117 -1.5923242e-22)
(1.9986116 -0.0083990687 1.6606578e-22)
(1.9990241 -0.0064468079 1.7627988e-22)
(2.0019204 -0.0045996875 0)
(2.002849 -0.0041759272 0)
(2.0016869 -0.0056267936 0)
(2.0021984 -0.0063759848 0)
(2.0015724 -0.0066314078 0)
(2.0023026 -0.0068840178 0)
(2.0014218 -0.0075162343 0)
(2.001918 -0.0084102837 0)
(2.0013315 -0.0083614967 0)
(2.0019385 -0.0091270519 0)
(2.0012006 -0.0091061934 0)
(2.0016906 -0.010247901 0)
(2.0010861 -0.0097854595 0)
(2.0016116 -0.010970493 0)
(2.0009387 -0.010368043 1.2006756e-23)
(2.0013983 -0.011801766 0)
(2.000785 -0.010864067 -1.256534e-24)
(2.0012327 -0.012407821 1.158108e-23)
(2.0006057 -0.01125984 -1.1994974e-23)
(2.0009985 -0.01298323 -1.2202133e-23)
(2.000414 -0.01155881 -3.1823625e-23)
(2.0007639 -0.013400069 0)
(2.0002058 -0.011758853 4.3743179e-24)
(2.0004907 -0.013730059 -3.0453614e-23)
(1.9999893 -0.011867752 3.1776798e-23)
(2.0002129 -0.013933635 3.2561192e-23)
(1.9997669 -0.011891752 0)
(1.9999175 -0.01404125 0)
(1.9995444 -0.011841092 4.7323519e-23)
(1.999619 -0.014050023 0)
(1.9993254 -0.011726877 -1.1256195e-22)
(1.999321 -0.013978323 4.4913392e-23)
(1.9991141 -0.011561032 -2.9187108e-23)
(1.9990304 -0.013836144 -1.478992e-22)
(1.9989131 -0.011355229 1.0434363e-22)
(1.9987513 -0.013638857 1.0785319e-22)
(1.9987244 -0.01112042 1.4173526e-22)
(1.9984873 -0.013398916 0)
(1.9985494 -0.010866418 -2.6183313e-23)
(1.9982406 -0.013128927 1.3374156e-22)
(1.9983885 -0.010601696 -1.4095992e-22)
(1.9980125 -0.012839599 -1.462196e-22)
(1.9982418 -0.010333316 -1.9149492e-22)
(1.9978036 -0.012540155 0)
(1.9976137 -0.012238383 -1.8014251e-22)
(1.9981091 -0.010066972 7.1055229e-27)
(2.0031118 -0.0061393672 0)
(2.0042199 -0.0054695963 0)
(2.0028032 -0.0074647525 0)
(2.0034463 -0.0081712733 0)
(2.0026335 -0.0087524542 0)
(2.0035317 -0.0087990611 0)
(2.002425 -0.0099244961 0)
(2.0030594 -0.010732178 0)
(2.0022846 -0.011041977 0)
(2.003056 -0.011641379 -2.2086979e-24)
(2.002092 -0.012052206 0)
(2.0027331 -0.013096898 2.2728639e-24)
(2.0019124 -0.012980936 0)
(2.0026042 -0.014042873 -1.0319138e-23)
(2.0016827 -0.013796061 0)
(2.0023052 -0.015151563 1.0745735e-23)
(2.0014357 -0.014500593 0)
(2.0020528 -0.015970602 0)
(2.0011467 -0.015078536 0)
(2.0017056 -0.016763213 2.7007945e-23)
(2.0008332 -0.015530047 0)
(2.0013465 -0.01735215 -2.8607102e-23)
(2.0004908 -0.015854193 0)
(2.0009321 -0.017835427 0)
(2.0001318 -0.016054216 0)
(2.0004984 -0.018154238 7.2589571e-23)
(1.9997613 -0.016140449 0)
(2.0000401 -0.018349086 -7.7941045e-23)
(1.9993885 -0.016124803 0)
(1.9995733 -0.018413899 0)
(1.9990202 -0.016021189 0)
(1.9991049 -0.018371748 9.8694861e-23)
(1.9986634 -0.015844883 0)
(1.9986463 -0.018234144 -1.0703262e-22)
(1.9983231 -0.015611157 0)
(1.9982042 -0.018020875 0)
(1.9980028 -0.015334555 0)
(1.9977846 -0.017747684 -1.3448816e-22)
(1.9977049 -0.01502829 0)
(1.9973916 -0.017431052 1.4678797e-22)
(1.9974307 -0.014703904 0)
(1.9970274 -0.017085048 0)
(1.9971803 -0.01437113 0)
(1.9966932 -0.016721971 1.8260923e-22)
(1.996389 -0.016352359 -2.0002793e-22)
(1.9969533 -0.014037901 0)
(2.0045307 -0.0077043912 0)
(2.0057842 -0.0067809119 0)
(2.0041557 -0.0093152464 0)
(2.0049142 -0.0099495059 0)
(2.0039343 -0.010879256 0)
(2.0049765 -0.010696546 0)
(2.0036729 -0.012335953 -2.2012704e-24)
(2.0044325 -0.013021015 0)
(2.0034835 -0.013729653 6.1793188e-26)
(2.0044031 -0.014125383 -2.1326618e-24)
(2.0032283 -0.015015773 -8.1396301e-24)
(2.0040127 -0.015917907 -7.4889004e-24)
(2.0029781 -0.016207437 7.4104506e-25)
(2.0038304 -0.01709641 4.9242334e-26)
(2.0026579 -0.017270982 1.0329201e-23)
(2.0034437 -0.018492984 3.3356661e-23)
(2.0023043 -0.018202153 2.7301945e-23)
(2.0030954 -0.019539058 -2.4066286e-23)
(2.0018878 -0.018982308 -3.2920097e-24)
(2.0026229 -0.020565688 2.6095707e-23)
(2.0014291 -0.019607459 -2.7263952e-23)
(2.0021212 -0.021345082 -5.8296749e-23)
(2.0009252 -0.020074434 7.3923969e-23)
(2.001542 -0.022000135 3.2635016e-23)
(2.0003917 -0.020383803 -1.0776637e-23)
(2.0009217 -0.022453022 7.0124125e-23)
(1.9998376 -0.02054979 -7.3767831e-23)
(2.0002705 -0.022752896 -7.5288537e-23)
(1.9992771 -0.020583666 1.0108795e-22)
(1.999599 -0.022888377 0)
(1.9987207 -0.020502268 -1.6842738e-23)
(1.9989221 -0.022888426 9.5323019e-23)
(1.9981793 -0.020324142 -1.0075856e-22)
(1.9982558 -0.022764925 -1.0336932e-22)
(1.997661 -0.020068279 -1.383464e-22)
(1.9976109 -0.02254227 0)
(1.9971717 -0.01975303 2.5039468e-23)
(1.9969966 -0.022239504 -1.2987015e-22)
(1.9967155 -0.019395319 1.3762448e-22)
(1.9964193 -0.021877268 2.9921895e-22)
(1.9962945 -0.019010122 1.8845087e-22)
(1.9958831 -0.021473316 2.6225494e-24)
(1.9959094 -0.018610215 -3.5879772e-23)
(1.9953898 -0.021043417 -2.0837419e-22)
(1.9949399 -0.020601282 1.8902642e-23)
(1.9955598 -0.018206139 -1.9681228e-22)
(2.0061368 -0.0092431978 0)
(2.007498 -0.0080653291 0)
(2.0057088 -0.011121618 0)
(2.0065611 -0.011654202 0)
(2.0054437 -0.012949407 0)
(2.006601 -0.012516402 0)
(2.005138 -0.014682766 0)
(2.0060033 -0.015205841 0)
(2.0049042 -0.016352199 -9.641978e-24)
(2.0059501 -0.016504092 0)
(2.0045901 -0.017916787 9.1408544e-25)
(2.0055029 -0.018624382 5.6243674e-25)
(2.0042688 -0.019377049 3.2654114e-23)
(2.0052686 -0.020037053 -2.2056147e-23)
(2.0038549 -0.020698389 -2.4163153e-24)
(2.004797 -0.021723594 4.4427923e-23)
(2.0033864 -0.021868975 -2.2993364e-23)
(2.004349 -0.02300571 -2.3116435e-23)
(2.0028289 -0.022866563 -3.0983912e-23)
(2.0037442 -0.024278199 0)
(2.0022064 -0.023681769 3.9398128e-24)
(2.003086 -0.02526346 -2.9444023e-23)
(2.0015165 -0.024307799 3.0929438e-23)
(2.0023224 -0.026107334 3.1341058e-23)
(2.0007792 -0.024747592 0)
(2.0014962 -0.026713434 0)
(2.0000077 -0.025007167 0)
(2.0006169 -0.027136665 -8.741833e-23)
(1.9992228 -0.025103291 0)
(1.9997077 -0.027358854 9.421804e-23)
(1.9984394 -0.025054439 0)
(1.9987855 -0.027415789 0)
(1.9976734 -0.024881886 0)
(1.997872 -0.027318207 0)
(1.9969368 -0.024608249 0)
(1.9969834 -0.027094765 1.3516541e-22)
(1.996239 -0.024255833 1.6171655e-22)
(1.9961334 -0.02676789 -2.9781141e-22)
(1.9955863 -0.023845555 1.4978285e-22)
(1.9953315 -0.026362484 3.1545572e-22)
(1.9949823 -0.023396199 -3.935026e-22)
(1.9945843 -0.025900292 2.5171932e-24)
(1.9944287 -0.022924 -1.4034273e-22)
(1.9938952 -0.025400925 -3.6921926e-22)
(1.9932651 -0.024881728 2.0349404e-22)
(1.993925 -0.02244252 2.0798782e-22)
(2.0078841 -0.010706704 0)
(2.0093129 -0.0092870572 0)
(2.0074196 -0.01282443 0)
(2.0083371 -0.013236778 0)
(2.0071223 -0.014893746 0)
(2.00836 -0.014203221 0)
(2.0067831 -0.016887697 0)
(2.0077275 -0.017220171 0)
(2.0065129 -0.018821663 9.7937924e-24)
(2.0076568 -0.018701198 0)
(2.0061479 -0.020656143 -2.2353456e-23)
(2.0071665 -0.021127425 9.4229249e-24)
(2.0057604 -0.022382434 -8.3298174e-24)
(2.0068873 -0.02276765 -3.0259973e-23)
(2.0052549 -0.02396414 2.1366176e-23)
(2.006339 -0.024738389 2.135625e-23)
(2.0046687 -0.025381981 0)
(2.0057938 -0.026260658 0)
(2.0039628 -0.02660934 0)
(2.0050565 -0.027787321 0)
(2.0031629 -0.027630684 0)
(2.0042355 -0.02899334 -3.2876489e-23)
(2.0022674 -0.02843514 0)
(2.0032755 -0.030045122 3.5002693e-23)
(2.0013023 -0.029023947 -8.8708846e-23)
(2.0022278 -0.030825195 0)
(2.0002837 -0.029394535 1.3721027e-23)
(2.0010896 -0.031396193 -8.3458766e-23)
(1.9992391 -0.029572043 8.8461042e-23)
(1.9999186 -0.031729731 8.9944293e-23)
(1.9981909 -0.029571533 0)
(1.9987156 -0.03186441 0)
(1.99716 -0.029417351 1.380747e-22)
(1.9975168 -0.031812834 0)
(1.9961638 -0.029135414 -1.78424e-22)
(1.9963441 -0.03160516 -1.4808387e-23)
(1.995216 -0.028752014 -1.0954137e-22)
(1.9952167 -0.031267376 3.3126427e-23)
(1.9943261 -0.028292229 1.5312123e-22)
(1.9941486 -0.030828443 1.6082208e-22)
(1.9935001 -0.027778958 0)
(1.9931495 -0.030314231 -1.9593834e-22)
(1.9927409 -0.027232296 0)
(1.9922249 -0.02974851 -2.2247859e-22)
(1.9913773 -0.029152693 2.43532e-22)
(1.9920486 -0.026669259 -2.2746113e-22)
(2.0097211 -0.012059742 0)
(2.0111786 -0.010425189 0)
(2.009237 -0.014378939 0)
(2.0101874 -0.014668761 0)
(2.0089205 -0.016659304 0)
(2.0102012 -0.015721983 0)
(2.0085611 -0.018886173 0)
(2.0095522 -0.019020305 0)
(2.0082665 -0.021061196 0)
(2.0094753 -0.02066331 -9.4574587e-24)
(2.0078634 -0.023147386 0)
(2.0089588 -0.023365089 -5.8226418e-25)
(2.00742 -0.025129246 0)
(2.0086478 -0.025219535 2.1924915e-23)
(2.0068313 -0.026968042 0)
(2.008037 -0.027463035 -1.1733284e-23)
(2.0061322 -0.028637487 0)
(2.0074051 -0.029226431 0)
(2.0052784 -0.030106007 -3.3046822e-23)
(2.0065435 -0.031014242 0)
(2.0042958 -0.031351066 4.2138269e-24)
(2.0055624 -0.032457672 -3.1221963e-23)
(2.0031836 -0.032356188 3.297998e-23)
(2.0044035 -0.033739917 7.1474175e-23)
(2.0019722 -0.03311477 0)
(2.0031215 -0.034722013 1.9994604e-24)
(2.0006836 -0.033634768 0)
(2.001724 -0.035471992 -4.6070887e-23)
(1.9993499 -0.033916307 0)
(2.0002521 -0.035951905 0)
(1.9980021 -0.033989745 0)
(1.9987455 -0.03619768 0)
(1.9966684 -0.03387703 -1.4652363e-22)
(1.9972281 -0.036223048 0)
(1.9953721 -0.033606735 1.8984342e-22)
(1.995734 -0.036060268 1.7070744e-23)
(1.9941326 -0.033208561 2.9931379e-22)
(1.9942891 -0.03573646 1.3394094e-22)
(1.9929637 -0.032711675 -1.9668533e-22)
(1.9929131 -0.035284924 -1.8901185e-22)
(1.9918746 -0.032143233 -4.0957474e-22)
(1.9916201 -0.03473533 2.4663299e-23)
(1.9908702 -0.03152751 4.3199855e-23)
(1.9904189 -0.03411581 -2.1115251e-22)
(1.9893138 -0.033452238 -3.6913588e-23)
(1.9899517 -0.030885407 2.375376e-22)
(2.0115947 -0.013287567 0)
(2.0130479 -0.011474838 0)
(2.0111056 -0.015765594 0)
(2.012058 -0.015946161 0)
(2.0107833 -0.018221733 0)
(2.0120726 -0.017065368 0)
(2.0104196 -0.02064528 -9.306127e-24)
(2.0114246 -0.020595724 0)
(2.0101165 -0.023031667 -1.0110717e-23)
(2.0113567 -0.022375799 -8.9371242e-24)
(2.0096924 -0.025345832 2.1538459e-23)
(2.0108332 -0.025320011 -5.5022419e-25)
(2.0092098 -0.027568228 9.435667e-24)
(2.0105091 -0.027372566 3.228922e-23)
(2.0085538 -0.029657913 -1.1149766e-23)
(2.0098565 -0.029875426 -2.3136536e-23)
(2.0077553 -0.031582355 0)
(2.0091566 -0.031880407 0)
(2.0067637 -0.033304705 0)
(2.0081883 -0.033937222 0)
(2.0056038 -0.034794856 3.8432407e-23)
(2.0070606 -0.035637559 0)
(2.0042744 -0.036029687 3.7822401e-23)
(2.005712 -0.037177584 3.6119221e-23)
(2.0028086 -0.03699591 -4.4685849e-23)
(2.0041988 -0.038398037 1.8886599e-24)
(2.0012352 -0.037691599 -4.3099287e-23)
(2.0025322 -0.039366144 -4.3514828e-23)
(1.9995924 -0.038124783 0)
(2.0007586 -0.040036576 0)
(1.9979169 -0.0383095 0)
(1.99892 -0.040441 0)
(1.9962473 -0.038274884 1.560817e-22)
(1.99706 -0.040587026 0)
(1.9946139 -0.038049438 -2.7605746e-23)
(1.9952126 -0.040511111 1.4503537e-22)
(1.9930428 -0.037665602 -3.5168931e-22)
(1.9934139 -0.040239988 -1.5797441e-22)
(1.9915534 -0.037156157 3.6156388e-23)
(1.9916906 -0.039809443 -1.8207344e-22)
(1.9901594 -0.036552477 1.9502713e-22)
(1.9900625 -0.039253244 1.9887816e-22)
(1.9888684 -0.035883216 -2.7383016e-22)
(1.9885427 -0.038603579 0)
(1.9871387 -0.037891142 -2.5306927e-22)
(1.9876838 -0.035173542 -2.6527255e-22)
(2.0134575 -0.014394679 0)
(2.014881 -0.012443418 0)
(2.0129747 -0.016992085 0)
(2.0139027 -0.017084743 -9.9415115e-25)
(2.0126602 -0.019587669 0)
(2.0139289 -0.018250607 1.0003562e-24)
(2.0123093 -0.022171488 0)
(2.0132981 -0.021967012 -4.5765026e-24)
(2.0120164 -0.024739174 0)
(2.0132568 -0.023860866 4.6698701e-24)
(2.0115922 -0.027257371 1.1437002e-23)
(2.0127479 -0.027016863 -1.083275e-23)
(2.0110927 -0.029705066 -7.2563389e-25)
(2.0124338 -0.029252802 2.208795e-23)
(2.0103926 -0.03203981 -1.1421193e-23)
(2.0117654 -0.03200302 -1.132973e-23)
(2.0095172 -0.034223934 0)
(2.0110235 -0.034251487 0)
(2.0084082 -0.036215279 0)
(2.009975 -0.03658713 0)
(2.0070877 -0.037975959 0)
(2.008725 -0.038566595 0)
(2.0055526 -0.039474872 0)
(2.0072074 -0.040395932 -4.163859e-23)
(2.003838 -0.040690124 0)
(2.0054778 -0.041895854 9.1645221e-23)
(2.0019763 -0.041611737 0)
(2.0035497 -0.043130605 -5.0593067e-23)
(2.0000137 -0.042242807 0)
(2.0014759 -0.044043292 -6.0511269e-23)
(1.9979933 -0.042591969 0)
(1.9992976 -0.044663118 6.5447629e-23)
(1.9959615 -0.042684653 0)
(1.9970766 -0.044988129 0)
(1.9939595 -0.042550892 0)
(1.9948531 -0.045052085 0)
(1.9920208 -0.04222371 0)
(1.99267 -0.044884635 0)
(1.9901717 -0.041738951 0)
(1.990564 -0.044521642 -1.1229248e-22)
(1.9884315 -0.041131845 0)
(1.9885618 -0.043999481 1.2265005e-22)
(1.9868122 -0.040435452 0)
(1.9866825 -0.043354685 0)
(1.9849377 -0.042622644 0)
(1.9853199 -0.039679491 -1.445249e-22)
(2.0152711 -0.015398355 -9.6527446e-25)
(2.0166478 -0.013344996 -2.3666316e-25)
(2.0148037 -0.018083872 1.9539027e-25)
(2.0156871 -0.018110342 -2.7239336e-24)
(2.0145103 -0.020786784 -3.5029391e-24)
(2.0157355 -0.019308006 2.9789318e-24)
(2.0141893 -0.023500057 6.1537986e-25)
(2.0151368 -0.023172592 -4.2835645e-24)
(2.0139269 -0.026223365 -6.1844953e-24)
(2.0151405 -0.025162157 4.3709538e-24)
(2.0135261 -0.028925506 1.2116336e-24)
(2.0146685 -0.028504909 -1.0139158e-23)
(2.0130364 -0.031586223 1.0632445e-23)
(2.01439 -0.030913269 1.0489527e-23)
(2.0123209 -0.034162558 0)
(2.0137353 -0.033901854 0)
(2.0113984 -0.036613181 0)
(2.0129833 -0.036397506 0)
(2.0102019 -0.038890916 0)
(2.0118882 -0.039023243 1.7009254e-23)
(2.0087483 -0.040950391 -4.166174e-23)
(2.0105492 -0.041305221 2.0322074e-23)
(2.0070311 -0.042751688 5.3141904e-23)
(2.0088939 -0.043456977 -3.6390441e-23)
(2.0050853 -0.044263203 3.4587788e-23)
(2.0069751 -0.045280084 3.9278516e-23)
(2.0029455 -0.04546528 -1.0801797e-22)
(2.0048063 -0.046833903 8.7711205e-24)
(2.0006642 -0.046350693 9.8796198e-24)
(2.0024434 -0.048047195 -1.1709904e-22)
(1.9982929 -0.046928061 6.0699865e-23)
(1.9999367 -0.048943613 6.122052e-23)
(1.9958844 -0.047208651 0)
(1.9973444 -0.049514202 0)
(1.9934895 -0.047223982 0)
(1.9947306 -0.049784315 0)
(1.9911531 -0.047007871 -1.1385944e-22)
(1.9921425 -0.049780739 1.0705889e-22)
(1.9889093 -0.046596818 2.095302e-23)
(1.9896245 -0.049542375 -2.2182326e-22)
(1.9867841 -0.046029501 1.1301385e-22)
(1.987214 -0.049106483 2.517979e-22)
(1.9847957 -0.045343103 0)
(1.984937 -0.048512185 -3.0436534e-22)
(1.9828108 -0.047800034 1.6907815e-22)
(1.9829537 -0.044571973 -1.5783379e-22)
(2.0170087 -0.016321521 -2.0260373e-24)
(2.0183272 -0.014194045 -2.2040896e-25)
(2.0165641 -0.019071549 6.5045644e-25)
(2.0173882 -0.01904879 -1.6714369e-24)
(2.016304 -0.021857332 1.9615634e-24)
(2.0174687 -0.020268923 1.9035849e-24)
(2.0160293 -0.02467711 0)
(2.0169155 -0.024253258 4.8199361e-24)
(2.0158178 -0.027536822 0)
(2.0169821 -0.026326631 -4.9179384e-24)
(2.015465 -0.03040818 0)
(2.016569 -0.029837285 0)
(2.0150135 -0.033273471 0)
(2.0163521 -0.032410911 0)
(2.0143152 -0.036090284 0)
(2.0157422 -0.035631498 -1.4023964e-23)
(2.0133807 -0.038815396 1.6895533e-23)
(2.0150149 -0.038378572 -9.6290423e-25)
(2.0121336 -0.041397274 3.6028269e-23)
(2.0139113 -0.041305178 3.236202e-23)
(2.0105834 -0.043783895 2.1549706e-23)
(2.0125232 -0.04391142 3.884255e-23)
(2.0087185 -0.045926326 -4.4302358e-23)
(2.01077 -0.046416906 -1.8818391e-23)
(2.0065712 -0.04778262 1.3018305e-23)
(2.0086996 -0.04860525 -4.3282222e-23)
(2.0041768 -0.049321971 -8.7996893e-24)
(2.0063231 -0.050529658 5.2257851e-23)
(2.0015909 -0.050526704 -5.6075751e-23)
(2.0036972 -0.052104109 -5.6344564e-23)
(1.998873 -0.051393326 0)
(2.0008765 -0.053341845 -3.8546754e-23)
(1.9960854 -0.051934178 0)
(1.9979289 -0.054225535 -2.2862025e-24)
(1.993286 -0.052167451 1.0820021e-22)
(1.9949194 -0.054774167 9.8347075e-23)
(1.9905293 -0.052124527 -1.9570142e-23)
(1.9919103 -0.055006306 1.0228833e-22)
(1.9878617 -0.051846738 3.135237e-23)
(1.9889633 -0.054957733 -2.3692316e-22)
(1.9853178 -0.051372917 -1.8255333e-22)
(1.986117 -0.054668675 2.7339765e-22)
(1.9829221 -0.050743879 -1.0798047e-22)
(1.983409 -0.054181088 -4.4865122e-22)
(1.9808639 -0.05353805 2.494084e-22)
(1.9806899 -0.049998446 1.6333573e-22)
(2.0186531 -0.017183314 0)
(2.0199064 -0.015000555 4.9637967e-25)
(2.0182378 -0.019981287 0)
(2.0189931 -0.019919373 -4.9546491e-25)
(2.018022 -0.022833196 4.6833518e-24)
(2.0191142 -0.021157658 0)
(2.0178087 -0.025744097 -7.1586024e-25)
(2.0186185 -0.025241427 4.4737969e-24)
(2.0176675 -0.028726965 -4.6785872e-24)
(2.0187639 -0.02739173 -4.5647243e-24)
(2.0173864 -0.031757342 0)
(2.0184299 -0.031056235 -5.911507e-24)
(2.0170016 -0.034821433 -1.381918e-23)
(2.0182996 -0.033790208 -6.9052008e-24)
(2.0163538 -0.037878375 -1.3830659e-23)
(2.0177643 -0.037237348 1.5029261e-23)
(2.0154451 -0.040884941 1.5383677e-23)
(2.017097 -0.040238521 1.1414678e-25)
(2.0141883 -0.04378627 3.5244161e-23)
(2.0160247 -0.043473755 -1.7440668e-24)
(2.0125845 -0.046525014 -2.5761236e-24)
(2.0146312 -0.046421315 1.8474003e-23)
(2.0106144 -0.049043678 -1.9744554e-23)
(2.0128257 -0.049306444 -1.9680938e-23)
(2.0083056 -0.051290039 0)
(2.0106492 -0.051896351 0)
(2.0056918 -0.053221353 0)
(2.0081077 -0.054237666 0)
(2.0028298 -0.054807807 -3.8719628e-23)
(2.0052567 -0.056229292 0)
(1.9997835 -0.056034646 -3.7846537e-23)
(2.0021526 -0.05787303 -3.575739e-23)
(1.9966242 -0.056902398 9.7014843e-23)
(1.9988685 -0.059138292 -2.1206698e-24)
(1.9934202 -0.05742642 9.3112212e-23)
(1.9954782 -0.060036444 9.1222663e-23)
(1.9902347 -0.057634814 -1.2702375e-22)
(1.9920553 -0.060579151 6.3980459e-23)
(1.9871229 -0.057552973 2.9644061e-23)
(1.9886542 -0.060796064 -1.8605316e-22)
(1.9841322 -0.057235975 -3.3471956e-23)
(1.9853633 -0.060722794 1.3516825e-22)
(1.9812966 -0.056721493 -5.8315091e-23)
(1.9821986 -0.060404427 -1.5324397e-22)
(1.9792027 -0.059889482 8.5294795e-23)
(1.978637 -0.056052128 -5.7749811e-24)
(2.0201948 -0.017995074 1.4271993e-25)
(2.0213785 -0.015769124 4.5889236e-25)
(2.0198152 -0.02083036 -4.7571741e-25)
(2.0204958 -0.020733232 6.4259894e-25)
(2.0196532 -0.023737487 0)
(2.0206642 -0.02198871 -1.1070781e-24)
(2.0195145 -0.026729646 0)
(2.0202364 -0.026157186 0)
(2.0194604 -0.029826381 -5.7750323e-24)
(2.020474 -0.028380449 0)
(2.0192725 -0.033008068 -1.2035874e-23)
(2.0202365 -0.032187403 -5.4662723e-24)
(2.018981 -0.03626575 2.0742606e-23)
(2.0202146 -0.035076984 -6.3848995e-24)
(2.0184157 -0.039561065 2.6980319e-23)
(2.0197813 -0.038744154 1.8451966e-23)
(2.0175702 -0.042852602 -1.5855795e-23)
(2.0192073 -0.041998543 8.7723016e-24)
(2.0163461 -0.046083481 -1.5940079e-23)
(2.018205 -0.045544961 -1.5780086e-23)
(2.0147347 -0.049192747 0)
(2.0168505 -0.048843722 0)
(2.0127075 -0.052115404 0)
(2.0150407 -0.052126086 0)
(2.0102851 -0.054789742 0)
(2.0128085 -0.055144809 0)
(2.0074967 -0.057161034 0)
(2.0101523 -0.05794038 0)
(2.0043983 -0.0591866 0)
(2.0071237 -0.060396851 0)
(2.0010562 -0.060838606 0)
(2.0037782 -0.062504098 0)
(1.9975472 -0.062105772 0)
(2.0001919 -0.064217019 0)
(1.9939492 -0.062993057 6.2001347e-23)
(1.9964449 -0.065535102 0)
(1.9903367 -0.063519696 -1.1279264e-23)
(1.9926191 -0.066460651 5.6904621e-23)
(1.9867757 -0.063724776 -6.1596504e-23)
(1.9887918 -0.067018311 -6.2087148e-23)
(1.9833209 -0.063625845 0)
(1.9850168 -0.067238678 0)
(1.980019 -0.063291559 0)
(1.9813959 -0.067161898 0)
(1.9779251 -0.066839223 1.1240066e-22)
(1.9769008 -0.062757554 1.0318428e-22)
(2.0216303 -0.018761474 1.0580065e-24)
(2.022741 -0.016500145 -5.2679798e-25)
(2.0212921 -0.02162726 -2.6422159e-25)
(2.0218948 -0.021494784 1.539874e-24)
(2.0211915 -0.024582021 -1.0572165e-24)
(2.0221154 -0.022767971 1.421108e-24)
(2.0211381 -0.027648591 0)
(2.0217639 -0.027009535 -2.4730319e-24)
(2.0211852 -0.030851571 0)
(2.0221038 -0.02930266 5.756362e-24)
(2.0211085 -0.034177246 0)
(2.021977 -0.033241383 4.0120222e-25)
(2.0209332 -0.037621903 -7.3435912e-24)
(2.0220814 -0.036280378 4.1527094e-25)
(2.0204793 -0.041150635 9.1404387e-25)
(2.0217733 -0.040158515 -1.4135332e-23)
(2.0197319 -0.044725406 7.3304107e-24)
(2.0213222 -0.043660448 -1.4171869e-24)
(2.0185814 -0.048288813 0)
(2.0204254 -0.047514137 9.1148619e-24)
(2.0170089 -0.0517782 0)
(2.0191522 -0.05116546 0)
(2.0149749 -0.05512265 0)
(2.0173858 -0.054852643 -1.2626733e-23)
(2.0124914 -0.058252381 0)
(2.0151503 -0.058316216 2.8018102e-23)
(2.0095806 -0.06110142 0)
(2.0124338 -0.061591777 -3.2309351e-23)
(2.0062951 -0.063614306 0)
(2.009282 -0.064549387 1.8041805e-23)
(2.002701 -0.065749346 0)
(2.0057466 -0.067167071 0)
(1.9988784 -0.067481846 0)
(2.001904 -0.069384832 0)
(1.9949119 -0.068804752 0)
(1.9978381 -0.071188616 0)
(1.9908861 -0.069728031 0)
(1.9936384 -0.07256838 3.4896925e-23)
(1.9868793 -0.070275976 0)
(1.9893912 -0.073539191 -3.8082814e-23)
(1.9829581 -0.070493711 0)
(1.9851764 -0.074128172 -4.6382068e-23)
(1.9791769 -0.07040614 1.1341891e-22)
(1.9810649 -0.074370032 5.0706053e-23)
(1.9771105 -0.074312798 1.643342e-22)
(1.9755775 -0.070071796 1.1231255e-22)
(2.022959 -0.01948264 -1.63242e-25)
(2.0239943 -0.017191445 -1.0291269e-24)
(2.0226675 -0.022373974 2.8539978e-24)
(2.0231908 -0.022204206 2.2064225e-24)
(2.0226341 -0.025370149 3.4977431e-25)
(2.0234669 -0.023495723 1.0561508e-24)
(2.022674 -0.028505323 3.2357718e-24)
(2.0231983 -0.027800133 -2.2716927e-24)
(2.0228327 -0.031806861 6.2937682e-24)
(2.023647 -0.030159517 5.2876536e-24)
(2.0228816 -0.035268162 3.8631437e-25)
(2.0236414 -0.034218856 3.6852648e-25)
(2.022841 -0.038890576 -6.5082232e-24)
(2.0238858 -0.03739881 3.8143748e-25)
(2.0225228 -0.042643672 -1.5282939e-23)
(2.0237214 -0.041475716 -6.654152e-24)
(2.021904 -0.046493929 8.7024695e-25)
(2.0234175 -0.045214476 -7.936574e-24)
(2.0208644 -0.050384992 8.482535e-24)
(2.0226572 -0.049364898 -1.6914774e-24)
(2.0193746 -0.054254403 -1.2521716e-23)
(2.0215032 -0.05336151 1.0673742e-23)
(2.0173836 -0.058027241 1.6256285e-23)
(2.019825 -0.057450747 -1.1595214e-23)
(2.0148931 -0.061627533 -6.3494345e-24)
(2.0176372 -0.061363275 2.572785e-23)
(2.0119164 -0.064979475 -1.1706195e-23)
(2.014916 -0.065131621 -2.9666809e-23)
(2.0084999 -0.068015651 1.6599744e-23)
(2.0116992 -0.068613362 1.6565389e-23)
(2.0047068 -0.070680559 0)
(2.0080319 -0.071775481 0)
(2.0006182 -0.072935263 0)
(2.0039882 -0.074543074 0)
(1.9963232 -0.074759202 3.5023701e-23)
(1.9996532 -0.076888109 0)
(1.991914 -0.076150715 -6.3638812e-24)
(1.9951215 -0.078786432 3.2036415e-23)
(1.9874788 -0.077125623 -8.1444712e-23)
(1.9904883 -0.08024134 -3.4960273e-23)
(1.9830984 -0.077714242 8.715912e-24)
(1.9858441 -0.081269883 -4.2578169e-23)
(1.978839 -0.077956198 1.0752503e-22)
(1.9812699 -0.081903059 4.6546776e-23)
(1.9768332 -0.082186543 5.5839153e-23)
(1.9747504 -0.077898796 6.0983658e-23)
(2.0241825 -0.020156418 9.5708179e-25)
(2.0251407 -0.017839939 -4.9939375e-25)
(2.0239423 -0.023069052 2.168767e-25)
(2.0243864 -0.022859937 1.5787179e-24)
(2.0239801 -0.0261006 -1.1295019e-24)
(2.0247192 -0.024169792 -1.0866231e-24)
(2.0241187 -0.029298487 0)
(2.0245385 -0.028527275 0)
(2.0243958 -0.03268993 0)
(2.0250993 -0.030948218 0)
(2.0245805 -0.036276886 0)
(2.0252218 -0.035116128 0)
(2.0246884 -0.040064958 0)
(2.0256151 -0.038426301 0)
(2.024525 -0.044029317 0)
(2.025608 -0.042686859 0)
(2.0240599 -0.048141574 -9.9131159e-24)
(2.02547 -0.046647285 -9.2289869e-24)
(2.0231632 -0.052347993 1.3509541e-24)
(2.0248711 -0.051078038 5.2252755e-25)
(2.0217954 -0.056588 9.8911355e-24)
(2.0238688 -0.055404961 9.7738696e-24)
(2.0198938 -0.06078475 0)
(2.0223184 -0.059883963 -1.3453271e-23)
(2.0174489 -0.064858185 0)
(2.0202255 -0.064238201 1.4408688e-23)
(2.0144635 -0.068724607 0)
(2.0175533 -0.068499255 0)
(2.0109758 -0.072306119 0)
(2.0143301 -0.072514182 2.0813603e-23)
(2.0070432 -0.075534161 0)
(2.0105921 -0.076240453 -2.2531671e-23)
(2.0027453 -0.078355494 0)
(2.0064086 -0.079588922 -2.8367625e-23)
(1.9981729 -0.080734986 0)
(2.0018628 -0.082517509 -2.301424e-24)
(1.9934238 -0.082657431 0)
(1.997052 -0.084987165 3.6146241e-23)
(1.9885952 -0.084126927 0)
(1.9920773 -0.086987643 4.5155783e-23)
(1.9837777 -0.085164512 0)
(1.9870382 -0.088524234 -4.9343302e-23)
(1.9790507 -0.0858044 0)
(1.9820262 -0.089619502 0)
(1.9771194 -0.090314818 3.5072148e-23)
(1.9744753 -0.086089939 0)
(2.025304 -0.020780261 0)
(2.0261843 -0.01844286 0)
(2.0251184 -0.023710189 0)
(2.025485 -0.023460505 0)
(2.0252296 -0.026770779 0)
(2.0258741 -0.024787901 -1.372949e-24)
(2.02547 -0.030025008 0)
(2.0257843 -0.029188881 1.3907733e-24)
(2.0258691 -0.033496579 0)
(2.0264576 -0.031665589 0)
(2.0261957 -0.037197735 0)
(2.0267121 -0.035929284 0)
(2.0264611 -0.041136908 0)
(2.0272589 -0.039357184 0)
(2.0264661 -0.045296135 -9.0534001e-24)
(2.0274177 -0.043784101 0)
(2.0261738 -0.049652196 9.1997305e-25)
(2.0274588 -0.047947713 -8.429232e-24)
(2.0254459 -0.054155497 9.0351697e-24)
(2.0270401 -0.05263789 3.5329325e-24)
(2.0242334 -0.058748655 -1.3306271e-23)
(2.0262152 -0.057274044 5.6871337e-24)
(2.0224621 -0.063354987 1.9926461e-24)
(2.0248259 -0.062122636 -1.9210017e-23)