/*--------------------------------*- C++ -*----------------------------------*\
  =========                 |
  \\      /  F ield         | OpenFOAM: The Open Source CFD Toolbox
   \\    /   O peration     | Website:  https://openfoam.org
    \\  /    A nd           | Version:  8
     \\/     M anipulation  |
\*---------------------------------------------------------------------------*/
FoamFile
{
    version     2.0;
    format      ascii;
    class       volScalarField;
    location    "0.750";
    object      Co;
}
// * * * * * * * * * * * * * * * * * * * * * * * * * * * * * * * * * * * * * //

dimensions      [0 0 0 0 0 0 0];

internalField   nonuniform List<scalar> 
16200
(
0.0162234
0.00828421
0.0101598
0.008972
0.0165262
0.0128563
0.019236
0.0158072
0.0224559
0.0134779
0.0199114
0.0198795
0.0253369
0.0138324
0.0219653
0.0168218
0.0193515
0.0228531
0.0199225
0.0187262
0.0175966
0.0213209
0.0177992
0.0231301
0.0208821
0.0202266
0.019158
0.0193867
0.0145428
0.0236069
0.0220415
0.020544
0.0247281
0.0143238
0.0205165
0.0241841
0.0150315
0.0169182
0.0114786
0.0141691
0.0167633
0.0203029
0.018868
0.00920356
0.0135883
0.0157315
0.00724631
0.0178664
0.010128
0.0126306
0.0216168
0.0130206
0.016068
0.0063583
0.0232837
0.00835644
0.0104879
0.00992593
0.0239427
0.0221954
0.00612217
0.00548155
0.0108502
0.00648823
0.0238201
0.00492518
0.00700758
0.00528088
0.0210036
0.00619433
0.00827795
0.0139019
0.0068821
0.00663613
0.00846008
0.0098777
0.0106075
0.0140834
0.00461035
0.0230421
0.0201435
0.0162227
0.0140069
0.00636745
0.0137179
0.0186481
0.0079873
0.0193142
0.0145428
0.012022
0.0251459
0.00821013
0.0222359
0.0176926
0.0247619
0.0222541
0.0237576
0.0238497
0.0198482
0.00857879
0.0136273
0.0246084
0.00512756
0.00526458
0.0103508
0.00434928
0.0244593
0.00559044
0.0185627
0.00520938
0.0235618
0.0232259
0.019095
0.00852687
0.0128822
0.00492198
0.0237069
0.0235751
0.00438514
0.0121038
0.0189655
0.00509038
0.022887
0.00480652
0.0230283
0.00837627
0.0177898
0.0116395
0.00465685
0.0221767
0.0221209
0.01877
0.00551636
0.0134331
0.00492863
0.0215634
0.00517662
0.0220059
0.0158598
0.00804254
0.0099958
0.0202897
0.00430146
0.014293
0.0200806
0.00681003
0.0177541
0.00527127
0.019707
0.0203899
0.00603656
0.0134033
0.00806982
0.0074268
0.0198845
0.00382928
0.00581265
0.00807106
0.0162185
0.0146669
0.0218086
0.018484
0.00697207
0.0196199
0.0135302
0.00608491
0.0065249
0.00323123
0.0214355
0.00640022
0.00913016
0.0229091
0.0145525
0.0167494
0.00783653
0.0212591
0.0196779
0.0158547
0.00449444
0.00545056
0.0224377
0.00252823
0.0138034
0.00987448
0.0234715
0.00692773
0.0176279
0.0208784
0.00852058
0.0221485
0.00440319
0.0175233
0.00623361
0.00181853
0.0230127
0.0237789
0.0142184
0.0180722
0.0102836
0.00732162
0.022627
0.021599
0.00896674
0.0185979
0.00822792
0.00358797
0.0233415
0.00123831
0.0141833
0.0180411
0.0239962
0.0103777
0.00755823
0.0219734
0.0229398
0.00917226
0.0192652
0.0101062
0.00356937
0.000926941
0.0233931
0.00763738
0.0175173
0.0239269
0.0104969
0.0136665
0.0231731
0.00921543
0.0219842
0.019632
0.0116681
0.00432079
0.0230804
0.00124713
0.0126537
0.010494
0.0230653
0.0163908
0.00765081
0.00927353
0.0216568
0.0229353
0.0199014
0.00525619
0.0127913
0.0219511
0.00179132
0.0110979
0.00751871
0.021394
0.010115
0.0145027
0.0218172
0.0206257
0.00910559
0.00618173
0.0194416
0.0135105
0.00244697
0.0199662
0.00723318
0.0199768
0.00907406
0.00931243
0.0118911
0.0187512
0.0199681
0.00867009
0.0181155
0.0140538
0.00697828
0.0209744
0.00309653
0.0218636
0.0105517
0.00679361
0.00681525
0.00813056
0.0203372
0.0174585
0.00797117
0.0178956
0.00759333
0.0143831
0.00366138
0.0225663
0.0134314
0.00478924
0.00622322
0.00672467
0.0230286
0.0198565
0.00707559
0.021704
0.0188128
0.0139973
0.00803821
0.0233309
0.00410092
0.0235592
0.0158384
0.00558908
0.00533379
0.00588578
0.0224247
0.006111
0.0213244
0.0192296
0.0138633
0.00833545
0.00440775
0.0237501
0.00500501
0.00817506
0.00423296
0.0175044
0.0238376
0.00526547
0.022115
0.0227203
0.00847221
0.0139393
0.0191692
0.00458734
0.0240662
0.00458975
0.0239023
0.0105384
0.0186325
0.00397898
0.0227163
0.0226605
0.00473585
0.00844002
0.0186416
0.0135005
0.00463844
0.0242879
0.0193048
0.0125489
0.0237621
0.0049243
0.00451267
0.0230944
0.0224284
0.00506513
0.0175829
0.0125596
0.00852921
0.0238801
0.00463847
0.022985
0.00485983
0.019797
0.0062681
0.0140755
0.0216408
0.0233063
0.00584762
0.0084534
0.0157573
0.0111332
0.00454938
0.022524
0.0150744
0.00544155
0.0213007
0.0198312
0.00778064
0.0199817
0.0226373
0.00684828
0.0131461
0.00810847
0.00927747
0.00430719
0.0204221
0.019646
0.0157125
0.00919595
0.0187651
0.00613845
0.0174592
0.00787582
0.0210532
0.0100816
0.00714209
0.00745138
0.00390727
0.0212074
0.0174686
0.0219571
0.00682565
0.0103024
0.0162372
0.0184121
0.0087731
0.0196136
0.00652718
0.0109763
0.00506621
0.00334795
0.0230618
0.0160873
0.0110533
0.0189143
0.00741708
0.0231327
0.0215755
0.00945379
0.0205183
0.0138674
0.00359793
0.00547029
0.00266928
0.0239731
0.00787631
0.0158394
0.019816
0.0114916
0.0236571
0.0228259
0.00991704
0.0216175
0.00445991
0.00536597
0.0159724
0.00197581
0.0243725
0.00820426
0.0238797
0.0162004
0.0116899
0.0201639
0.022216
0.0101769
0.0234065
0.00738941
0.017366
0.00368335
0.0244902
0.00140421
0.0117232
0.0160673
0.00839119
0.0238836
0.0200624
0.0236234
0.0102407
0.0224585
0.0036113
0.00930542
0.0181828
0.00107855
0.0245132
0.0235142
0.00841687
0.0118965
0.0154335
0.0223502
0.0195368
0.0102908
0.0236256
0.0184841
0.00428262
0.0108853
0.00132516
0.0239883
0.0142622
0.0116924
0.00838689
0.0221951
0.0102885
0.0233174
0.018403
0.021792
0.00512014
0.0183703
0.0120165
0.0224177
0.00178953
0.0221721
0.010989
0.00819032
0.0124271
0.0099608
0.0199582
0.0163611
0.0176924
0.0127222
0.00594806
0.0209526
0.0202775
0.00234999
0.0199532
0.00777945
0.00981354
0.00998802
0.0204106
0.00924785
0.0134494
0.0131437
0.0161318
0.0229714
0.00664952
0.018431
0.0211213
0.00289851
0.0072907
0.0170922
0.00827289
0.00712393
0.008182
0.0219556
0.00716492
0.0169471
0.013192
0.0239754
0.00335754
0.0200164
0.0228659
0.0198465
0.00553894
0.00655614
0.00626723
0.0227109
0.00687446
0.0174701
0.0125695
0.00750271
0.0244497
0.0209787
0.0036837
0.0237497
0.0215088
0.00533832
0.00823099
0.00495272
0.00553726
0.0230005
0.0174156
0.0128802
0.0248502
0.00768569
0.0242781
0.00387129
0.0213077
0.00376435
0.0225323
0.0112187
0.00450071
0.0230561
0.00442403
0.308847
0.0253026
0.17217
0.00773575
0.0127146
0.0168314
0.0212539
0.0247326
0.00393137
0.25828
0.0137704
0.00391473
0.0232654
0.00371728
0.0228595
0.0037691
0.0156654
0.0254867
0.0120206
0.00778959
0.19299
0.0208179
0.025243
0.00393154
0.0238371
0.34571
0.00380647
0.0157315
0.00503249
0.303639
0.292616
0.0221534
0.00426122
0.00783337
0.0108137
0.0137616
0.296291
0.190234
0.0245979
0.274271
0.00387825
0.019816
0.34595
0.0252432
0.006693
0.306272
0.0170961
0.00425941
0.0243082
0.00529025
0.237284
0.285672
0.0202585
0.0223034
0.230813
0.00917182
0.0110422
0.279063
0.262334
0.0077226
0.0239101
0.211799
0.00371821
0.0178124
0.0179044
0.0239691
0.00499783
0.00841956
0.0170636
0.284633
0.276456
0.00654709
0.238141
0.0210109
0.00739259
0.00724384
0.00775139
0.10084
0.259004
0.280062
0.0214767
0.330853
0.187555
0.00345866
0.0145754
0.0099563
0.00584791
0.106942
0.0223356
0.0184118
0.0886451
0.00780511
0.0788632
0.228946
0.08803
0.0191258
0.27941
0.00659794
0.00528785
0.0068426
0.0235944
0.0955202
0.0970028
0.230473
0.265103
0.00311474
0.212579
0.0228581
0.0132333
0.216935
0.0111282
0.255732
0.0230271
0.17407
0.193638
0.0182878
0.35828
0.00665197
0.0088784
0.0211835
0.190631
0.290495
0.00973395
0.257205
0.00366119
0.024808
0.220811
0.00613983
0.164484
0.0165513
0.317388
0.0244826
0.00271046
0.156282
0.00730564
0.0174156
0.371952
0.0119423
0.0239583
0.0220987
0.315148
0.00967588
0.346319
0.10529
0.0996183
0.409386
0.320201
0.00475538
0.266261
0.274226
0.369756
0.0250936
0.00542413
0.481364
0.0125002
0.196807
0.0186874
0.109652
0.0249932
0.00228971
0.322995
0.0181558
0.00778349
0.0125104
0.0240936
0.0226878
0.355854
0.137216
0.0102204
0.390881
0.022558
0.00483762
0.455914
0.0643731
0.0145024
0.00654902
0.0915423
0.271585
0.0250478
0.118821
0.0019299
0.256833
0.153167
0.112521
0.0491038
0.0198835
0.106127
0.0249644
0.251245
0.0239022
0.41024
0.229819
0.0128812
0.00811357
0.0182597
0.570537
0.446929
0.166496
0.543546
0.0105701
0.0226538
0.332756
0.00844919
0.0157994
0.220516
0.117996
0.0862499
0.289179
0.00473775
0.181663
0.114867
0.350116
0.178851
0.24974
0.0248292
0.185296
0.297836
0.074086
0.430889
0.320847
0.182304
0.0874197
0.0512828
0.370332
0.0205623
0.00175211
0.245834
0.0559155
0.559161
0.265186
0.0247833
0.200404
0.00829514
0.0177641
0.0691384
0.276023
0.365346
0.110346
0.0235901
0.00436547
0.236934
0.281258
0.131472
0.167724
0.232211
0.146821
0.0127531
0.0870142
0.0931582
0.3017
0.0287283
0.352164
0.436739
0.0223448
0.112905
0.15048
0.0107785
0.0848688
0.0163849
0.148845
0.00524218
0.0247702
0.110072
0.430796
0.0147026
0.0101536
0.134688
0.314589
0.391342
0.376411
0.311187
0.117783
0.470365
0.00197534
0.024632
0.07071
0.0206688
0.122493
0.0167559
0.0232763
0.0125701
0.140911
0.018301
0.0084349
0.024713
0.246176
0.197371
0.317442
0.0269304
0.146314
0.0219522
0.0701495
0.338617
0.010956
0.177169
0.11597
0.0913783
0.0127162
0.0043742
0.0150673
0.416818
0.386887
0.279821
0.0165384
0.00592056
0.358522
0.0107504
0.0530416
0.0114145
0.312933
0.343061
0.186294
0.00235962
0.0203517
0.0912562
0.141596
0.0952937
0.0138489
0.0227232
0.0237994
0.0118182
0.0152822
0.374726
0.0985784
0.00842053
0.209777
0.00986738
0.236574
0.0107088
0.0367122
0.0212282
0.239718
0.0953979
0.0284288
0.0225801
0.0591277
0.0869296
0.00882926
0.136646
0.0114779
0.204018
0.00662434
0.409504
0.0120502
0.205646
0.0046157
0.0906627
0.132433
0.222736
0.14104
0.00282888
0.00979887
0.0197417
0.0695277
0.00251922
0.127453
0.0288364
0.140231
0.0671699
0.159609
0.244986
0.126895
0.0362092
0.00813995
0.291903
0.0106106
0.110858
0.0211695
0.0233465
0.0165873
0.0979712
0.0131802
0.220573
0.00993933
0.00201546
0.204612
0.0149568
0.301562
0.00863815
0.0756817
0.116765
0.218861
0.00723216
0.394948
0.0186102
0.351265
0.371429
0.281914
0.113543
0.00668694
0.0113463
0.012271
0.123857
0.114123
0.0136434
0.00329794
0.00205344
0.395988
0.0464479
0.271887
0.0553897
0.0197055
0.00164942
0.0109696
0.00110917
0.00879766
0.00860315
0.158287
0.0880331
0.0762103
0.130965
0.230099
0.00877995
0.00909405
0.198982
0.0102932
0.0181993
0.0157904
0.318165
0.00592591
0.15334
0.00752494
0.453193
0.165964
0.0233501
0.177324
0.0141792
0.00872954
0.0151898
0.464049
0.179805
0.0531858
0.00393468
0.584091
0.00767935
0.340031
0.0125756
0.290979
0.00516902
0.0185029
0.227279
0.0304652
0.0801686
0.749515
0.533849
0.00370062
0.0385723
0.282287
0.122706
0.0771861
0.00736569
0.0212787
0.415103
0.174402
0.0089365
0.00694659
0.00734578
0.0199513
0.0152821
0.164361
0.024723
0.00660211
0.24775
0.245913
0.0116677
0.14415
0.473935
0.00720481
0.014416
0.352551
0.297286
0.240522
0.259499
0.0409334
0.0296802
0.222031
0.00762992
0.798867
0.00103098
0.0130807
0.326374
0.210353
0.0200216
0.0465923
0.0138552
0.0129177
0.357468
0.23696
0.00795034
0.42318
0.324891
0.0104897
0.00491597
0.0226341
0.47988
0.225905
0.0993321
0.143126
0.0301795
0.432644
0.0228139
0.292089
0.00399634
0.0130527
0.0281724
0.551049
0.00802379
0.0226454
0.0159484
0.0248591
0.0054983
0.00544683
0.0792322
0.409638
0.492632
0.716328
0.0579651
0.657017
0.0177833
0.0144154
0.0241763
0.0163695
0.135518
0.0441025
0.411344
0.00556859
0.0338224
0.485167
0.0169811
0.00805055
0.00507423
0.0127601
0.0208009
0.398524
0.0295657
0.357244
0.114553
0.181301
0.130519
0.448838
0.0673382
0.412852
0.335112
0.0128347
0.0123899
0.0167743
0.18527
0.023127
0.0110937
0.0274771
0.0289723
0.055363
0.401644
0.0293325
0.315799
0.333187
0.0259049
0.475788
0.00844793
0.00797605
0.0247871
0.46954
0.248833
0.146204
0.0163291
0.00438657
0.0239382
0.0615861
0.407554
0.0170178
0.306314
0.0132334
0.00364613
0.300582
0.0507034
0.193329
0.0179068
0.0145277
0.0141901
0.281818
0.0469189
0.131346
0.221563
0.00402366
0.200933
0.437203
0.0133245
0.0418886
0.00799811
0.0180832
0.0254955
0.108253
0.402729
0.0179404
0.055104
0.0191522
0.0156204
0.0500279
0.0210264
0.379275
0.014222
0.465092
0.591825
0.0231877
0.00349309
0.0197013
0.404955
0.0110562
0.222193
0.0247775
0.391499
0.238818
0.31218
0.00823302
0.0243775
0.631
0.576801
0.466808
0.490487
0.0167517
0.0205422
0.0338114
0.21955
0.0561005
0.00228883
0.0518948
0.0034554
0.0798828
0.0574484
0.0183645
0.0204985
0.659267
0.239349
0.0553652
0.0203979
0.00438233
0.0427489
0.100233
0.0249279
0.620905
0.0410846
0.0258596
0.00281088
0.0282923
0.0504078
0.019482
0.555388
0.492183
0.016318
0.0170543
0.30411
0.0116681
0.0306296
0.758177
0.0962688
0.0186179
0.0222574
0.161367
0.0145592
0.0203392
0.0192135
0.0209749
0.635693
0.115573
0.0297681
0.00417084
0.332831
0.873325
0.00245144
0.00758019
0.0143504
0.322391
0.00517921
0.0305853
0.0231723
0.773071
0.739552
0.0245234
0.0329822
0.0778764
0.0775074
0.260965
0.0196887
0.0248316
0.058427
0.0115975
0.0243722
0.271228
0.00799817
0.0260342
0.0028861
0.148423
0.00271217
0.0208762
0.0186019
0.201939
0.0574417
0.00786133
0.0215971
0.00934327
0.0279029
0.231403
0.0279276
0.608921
0.00977247
0.00709294
0.0305878
0.0522806
0.0376816
0.135515
0.0118205
0.0209925
0.10998
0.0164495
0.0192695
0.015828
0.00237744
0.112043
0.0116453
0.670498
0.0208479
0.27948
0.0409973
0.112678
0.0520711
0.0549528
0.0815655
0.00663934
0.235449
0.0322027
0.0093251
0.0123898
0.549523
0.0036312
0.120103
0.0241436
0.0102737
0.0488756
0.549767
0.0580149
0.03536
0.0158924
0.0217347
0.0540402
0.42252
0.0210148
0.0231256
0.00608789
0.004036
0.0114354
0.00418399
0.0139123
0.0368993
0.00538757
0.00702929
0.055614
0.0942749
0.0139064
0.0158919
0.0183134
0.663603
0.0175288
0.050721
0.0483437
0.146213
0.409045
0.0371432
0.117049
0.0750303
0.0182466
0.0244433
0.0242611
0.566508
0.0113335
0.0142528
0.28673
0.305729
0.0219357
0.00311132
0.0220367
0.0865402
0.0529938
0.0287395
0.17914
0.235562
0.0235004
0.012592
0.00419167
0.0566982
0.0241393
0.0207723
0.0269262
0.0103844
0.229519
0.0162033
0.0258384
0.0594657
0.52442
0.00988894
0.0866863
0.0780377
0.060785
0.0711519
0.00740708
0.0309408
0.0545348
0.488035
0.329279
0.0801833
0.0156961
0.0264143
0.0114741
0.00319986
0.0471462
0.738842
0.0412074
0.019283
0.145933
0.0581988
0.0880431
0.0176299
0.57152
0.107785
0.0150144
0.0226221
0.0311246
0.0136463
0.0882513
0.180616
0.139424
0.0275532
0.184743
0.486076
0.0839428
0.033838
0.0112029
0.0552165
0.0693151
0.0909541
0.0438038
0.131817
0.0195156
0.0464736
0.162352
0.101796
0.0670347
0.0814457
0.0130554
0.0379742
0.0664018
0.00641194
0.0038344
0.0712287
0.172012
0.0365078
0.0255316
0.194431
0.0227973
0.0423577
0.135504
0.188307
0.0595202
0.186905
0.0451057
0.00281742
0.801624
0.0098795
0.0231942
0.0233205
0.219568
0.00602466
0.3851
0.289765
0.0318567
0.166182
0.0399164
0.0574257
0.0161561
0.0132049
0.00380096
0.0600818
0.147481
0.0239959
0.0311012
0.619093
0.252497
0.0174609
0.0243913
0.0116241
0.262531
0.0382543
0.659622
0.137664
0.00449272
0.0410194
0.287444
0.0259974
0.029611
0.0122531
0.140435
0.379087
0.156064
0.0260844
0.153479
0.0077492
0.0231447
0.0202224
0.102114
0.0519353
0.00558085
0.0326133
0.213378
0.36375
0.0146803
0.109902
0.0280895
0.651639
0.00884084
0.0866527
0.0703697
0.00638689
0.0282474
0.026923
0.0289208
0.196931
0.618412
0.12688
0.00846074
0.0134722
0.181094
0.0440285
0.0362382
0.081155
0.0317497
0.121484
0.279026
0.0333284
0.243184
0.00585075
0.127502
0.0217582
0.0115229
0.0741084
0.0118314
0.00759905
0.0251592
0.00869106
0.0786512
0.0135241
0.04227
0.110032
0.0757693
0.138054
0.0693026
0.0268141
0.0718148
0.114682
0.200266
0.025708
0.011637
0.0784756
0.00752024
0.0758033
0.0342462
0.0270043
0.131576
0.19107
0.0237804
0.128966
0.0712457
0.0900968
0.0449672
0.39801
0.0159152
0.0349925
0.0173255
0.147723
0.170994
0.0667234
0.134455
0.0103362
0.0305948
0.00479458
0.049053
0.192381
0.178519
0.00791745
0.111317
0.039882
0.0317181
0.0268755
0.612631
0.0805206
0.224308
0.0711276
0.0785035
0.0163069
0.0544913
0.080764
0.0261575
0.0236053
0.0189289
0.200921
0.38053
0.0140206
0.127889
0.222799
0.0978675
0.200645
0.199502
0.159823
0.070042
0.0752471
0.0641005
0.0181598
0.167132
0.143661
0.0726539
0.0829139
0.0269906
0.0405169
0.133831
0.169145
0.623198
0.0742926
0.00605898
0.0251229
0.06986
0.124548
0.0732648
0.281618
0.0308644
0.116447
0.0531333
0.362331
0.0451644
0.0021211
0.134166
0.0882867
0.425117
0.0227501
0.0754864
0.0653702
0.0624642
0.151139
0.419478
0.117892
0.0746179
0.0388786
0.0109987
0.0909157
0.00815596
0.0370598
0.0181537
0.0955893
0.025008
0.0880101
0.210368
0.147528
0.0237046
0.0179223
0.0614674
0.0731021
0.337635
0.380907
0.0627053
0.00713531
0.103102
0.298212
0.0106897
0.0721134
0.0711571
0.0471669
0.548529
0.116481
0.193094
0.017939
0.568794
0.0353606
0.0476466
0.0371089
0.0240418
0.00951995
0.209497
0.0926597
0.035085
0.00900191
0.11875
0.275631
0.114141
0.066255
0.294927
0.121529
0.27952
0.158111
0.0193912
0.225073
0.125343
0.388565
0.360244
0.0390701
0.572501
0.0118745
0.286612
0.0132852
0.280569
0.0262892
0.0845181
0.0322728
0.285293
0.0647928
0.0889696
0.143655
0.0096014
0.206444
0.230242
0.146226
0.0448993
0.436608
0.0176719
0.122683
0.0226981
0.0653673
0.00586825
0.0303245
0.0316467
0.013848
0.0893265
0.240247
0.0370532
0.0415121
0.119969
0.0973684
0.0314645
0.0309364
0.190561
0.0794403
0.0207344
0.131812
0.00853711
0.0516877
0.0333828
0.121669
0.125896
0.594602
0.0358964
0.0388721
0.099912
0.294856
0.251933
0.0556721
0.0554997
0.130572
0.00760727
0.0332377
0.30919
0.0467472
0.431352
0.0880043
0.20235
0.0830128
0.0387384
0.0825621
0.137728
0.0149866
0.0696675
0.515827
0.391888
0.455566
0.0221918
0.186532
0.0773548
0.0130412
0.0390011
0.0164136
0.0230493
0.237103
0.343145
0.0620581
0.0263271
0.142524
0.0217925
0.264719
0.110334
0.120963
0.0186033
0.057866
0.272399
0.0645514
0.0382405
0.0465676
0.0951425
0.041295
0.230425
0.0530851
0.0182303
0.302443
0.326552
0.212918
0.0200325
0.0475261
0.0776145
0.0755422
0.0539336
0.0570888
0.132305
0.093119
0.0246988
0.0243286
0.0818936
0.0676795
0.00764667
0.00619091
0.0466799
0.211747
0.0461199
0.128276
0.0721807
0.203322
0.084378
0.0270961
0.0871558
0.063864
0.0377904
0.0228046
0.0424552
0.107681
0.0204266
0.0328936
0.0658754
0.158115
0.0153564
0.278028
0.0486453
0.0121764
0.137293
0.185132
0.0492523
0.0203512
0.117187
0.102449
0.0817937
0.0414039
0.00889792
0.0698187
0.00676334
0.00722536
0.0202618
0.22417
0.0319898
0.109362
0.245376
0.107509
0.0415672
0.0783658
0.168365
0.0837366
0.0498297
0.0235166
0.0695798
0.00680091
0.0208812
0.050705
0.253468
0.0407045
0.0287252
0.129844
0.0183349
0.0703796
0.0336346
0.300125
0.00959851
0.00624211
0.0347644
0.132731
0.0349965
0.0163308
0.356799
0.197204
0.0368958
0.345031
0.333846
0.41402
0.228404
0.0387578
0.121821
0.0216775
0.0107633
0.328223
0.0937452
0.0900705
0.0682008
0.00352149
0.0832498
0.274921
0.0592098
0.036424
0.0491269
0.0533836
0.273312
0.0124685
0.263138
0.0420243
0.0486368
0.127706
0.0385201
0.0257884
0.111311
0.0815131
0.0591972
0.020474
0.0190886
0.0208101
0.0370631
0.0287715
0.0798778
0.0903329
0.398598
0.0748238
0.0244481
0.0355276
0.0288895
0.0154377
0.0507373
0.339049
0.114606
0.354115
0.0318736
0.0927047
0.0311644
0.0157943
0.0253729
0.400444
0.18732
0.0552903
0.075265
0.0088259
0.0626208
0.0438421
0.0236592
0.012724
0.129874
0.0852375
0.0257398
0.148474
0.0888026
0.0601129
0.0981098
0.0194185
0.171278
0.034741
0.280859
0.0615538
0.0675296
0.0645166
0.408953
0.0334551
0.0591326
0.358564
0.0125043
0.599396
0.0710324
0.0217411
0.139104
0.0837398
0.291656
0.282901
0.0159847
0.0382837
0.0528999
0.119065
0.0330816
0.0305804
0.045031
0.0274859
0.00657945
0.0359053
0.473894
0.0880824
0.0416315
0.0293982
0.39566
0.207736
0.0855107
0.0192531
0.0527372
0.00735961
0.0406566
0.0485207
0.022809
0.0958284
0.0536602
0.129986
0.0934079
0.25306
0.0618594
0.163072
0.159108
0.0818431
0.0658787
0.0404127
0.00411578
0.168432
0.0800401
0.136971
0.036828
0.240154
0.201545
0.0656903
0.00673392
0.190005
0.231967
0.0173161
0.0377041
0.0368228
0.339175
0.0560117
0.0382275
0.0221553
0.185923
0.17155
0.0525337
0.006967
0.0201843
0.0951426
0.110904
0.0415507
0.043669
0.0397104
0.0129501
0.0562553
0.252071
0.266263
0.241923
0.230415
0.0911042
0.021182
0.0960194
0.0238445
0.0339656
0.158863
0.075989
0.366646
0.162263
0.349367
0.0648109
0.0189624
0.135713
0.0154859
0.0136799
0.141225
0.172101
0.0595311
0.086802
0.082677
0.0373989
0.0140025
0.221151
0.13285
0.00535466
0.265111
0.019941
0.0502964
0.0192077
0.120792
0.121208
0.171935
0.244923
0.32571
0.240755
0.0702208
0.180635
0.393579
0.0354953
0.00375295
0.249719
0.125112
0.0248658
0.158858
0.0683223
0.0187406
0.35065
0.0587503
0.100509
0.0214297
0.0165179
0.0880326
0.191954
0.154531
0.272839
0.0113031
0.00701563
0.0483591
0.0540325
0.00715811
0.17787
0.0742633
0.193965
0.072656
0.0399096
0.0583646
0.170355
0.405675
0.235477
0.0236033
0.0128969
0.0535551
0.228649
0.240519
0.0701544
0.163472
0.00744292
0.036888
0.0870425
0.28117
0.0643199
0.0376488
0.0134102
0.107604
0.0227597
0.0183142
0.0771933
0.23219
0.126339
0.0653187
0.0267161
0.0178733
0.0221947
0.0815903
0.0150318
0.352427
0.0215603
0.14238
0.138811
0.153733
0.0719299
0.04745
0.259496
0.00378453
0.0369802
0.0946863
0.0566044
0.184312
0.274624
0.180127
0.158322
0.0406949
0.00950205
0.0603024
0.329327
0.0367561
0.219264
0.152468
0.192693
0.108514
0.088348
0.16442
0.0302525
0.231713
0.273397
0.0357508
0.0353862
0.0158602
0.030327
0.175985
0.0286729
0.229886
0.15318
0.0163753
0.0193895
0.0717307
0.0724042
0.119201
0.143917
0.170648
0.198061
0.0733818
0.0324048
0.00595097
0.00897567
0.0199458
0.0164014
0.123022
0.146314
0.0175269
0.127039
0.0368669
0.0393429
0.0266972
0.016174
0.0850517
0.153741
0.0110821
0.266343
0.135691
0.017441
0.0199586
0.0341545
0.0260174
0.118112
0.082394
0.00753478
0.0538222
0.201834
0.181121
0.147851
0.311681
0.0338854
0.0523873
0.0144787
0.0305882
0.0481263
0.00228545
0.110025
0.304623
0.106047
0.0452102
0.010778
0.250681
0.0653269
0.0379221
0.198571
0.0548934
0.118961
0.0728375
0.174049
0.0738852
0.0477441
0.0866737
0.123772
0.0467638
0.189616
0.205264
0.129041
0.292482
0.124267
0.203674
0.0522445
0.0899531
0.280969
0.227685
0.260406
0.332375
0.126735
0.0340282
0.0879663
0.239353
0.0335223
0.242673
0.120986
0.157771
0.11675
0.185204
0.0402954
0.113086
0.0243926
0.319085
0.00710282
0.111866
0.0557994
0.0817157
0.00370737
0.104355
0.0182046
0.240282
0.092672
0.330188
0.0735704
0.00620379
0.123111
0.160813
0.197945
0.180596
0.175214
0.067724
0.221139
0.144677
0.0734201
0.0360176
0.0798796
0.321232
0.0297398
0.0615602
0.15294
0.344297
0.41107
0.0250058
0.403187
0.0675235
0.236552
0.0469149
0.0183029
0.0135189
0.209093
0.00675162
0.33772
0.0493168
0.111945
0.0144363
0.0432242
0.215102
0.0194813
0.0252529
0.0863386
0.224464
0.13621
0.0326608
0.192501
0.200854
0.0804202
0.230451
0.130745
0.167222
0.19075
0.285476
0.211062
0.0670015
0.0464519
0.128828
0.242658
0.341188
0.0163875
0.183005
0.153384
0.174636
0.241327
0.0198688
0.0127297
0.0501176
0.00350358
0.267963
0.0745249
0.00600353
0.109866
0.0734434
0.0273729
0.298884
0.011766
0.141494
0.261987
0.272499
0.0266399
0.281147
0.027041
0.291272
0.0497997
0.0431743
0.158587
0.157348
0.00774799
0.18754
0.0255006
0.374821
0.265677
0.0696335
0.0164223
0.301446
0.200499
0.0151523
0.0237748
0.0447193
0.274978
0.113615
0.0348159
0.0801037
0.23655
0.19533
0.0167037
0.0435819
0.316628
0.0251765
0.0167097
0.1448
0.0733666
0.173924
0.36262
0.0107595
0.00947901
0.000554361
0.201235
0.161918
0.0505615
0.109697
0.101768
0.0829058
0.042147
0.152688
0.0181436
0.0097522
0.0132138
0.398442
0.0255124
0.0445199
0.220203
0.0801522
0.0257401
0.0934966
0.232819
0.00890477
0.0611118
0.0220037
0.0571287
0.187233
0.0159522
0.382749
0.195425
0.00602719
0.0575713
0.122416
0.338664
0.217588
0.225869
0.178112
0.278431
0.0251943
0.179606
0.12683
0.0166219
0.019441
0.322192
0.021168
0.237594
0.0516918
0.0631621
0.0547911
0.134073
0.180396
0.0389166
0.0727791
0.0818893
0.231543
0.157487
0.0388478
0.148294
0.0262838
0.0538334
0.286574
0.0142362
0.0540635
0.179555
0.127696
0.0544426
0.0939376
0.0442059
0.0410328
0.0355817
0.200905
0.353969
0.140877
0.0951006
0.00411338
0.220134
0.00149517
0.153736
0.00542453
0.0357949
0.0530671
0.055951
0.384599
0.368131
0.185695
0.0295641
0.124647
0.153899
0.0547379
0.200343
0.00358346
0.0398972
0.118413
0.229177
0.0370387
0.0301244
0.0229409
0.129536
0.0430317
0.0864053
0.10975
0.127179
0.27366
0.0187038
0.0069105
0.0291137
0.00962044
0.207702
0.0553024
0.0188245
0.206332
0.0338445
0.232566
0.0127077
0.0390938
0.137455
0.288383
0.134203
0.022936
0.122124
0.0237813
0.00825734
0.0373189
0.167792
0.00164898
0.0707606
0.166597
0.0039185
0.21417
0.307919
0.0244485
0.0850245
0.294414
0.0989833
0.270053
0.00222473
0.0177083
0.194175
0.0345613
0.0184939
0.0730484
0.163662
0.0144656
0.0334038
0.0155663
0.201416
0.0106479
0.0185107
0.121978
0.0632495
0.145121
0.195839
0.347071
0.12325
0.0348662
0.244834
0.0189229
0.264256
0.0419926
0.0382396
0.13634
0.477068
0.0441417
0.0265719
0.00531603
0.0157551
0.36388
0.185327
0.0167532
0.060214
0.297754
0.0185033
0.0218553
0.326026
0.0291113
0.0484948
0.257621
0.0153437
0.358297
0.0124493
0.0083074
0.067404
0.0434684
0.203282
0.0110149
0.0142079
0.146578
0.0617807
0.257157
0.0117126
0.0352284
0.0707473
0.0539612
0.187493
0.0344779
0.010687
0.149161
0.098582
0.20745
0.00613907
0.0164674
0.0688367
0.0971223
0.196457
0.0100175
0.00608585
0.0529362
0.0114029
0.00451705
0.363811
0.014979
0.00276716
0.141153
0.282957
0.10868
0.00869211
0.118211
0.111163
0.0260009
0.236214
0.026169
0.0421278
0.03149
0.188293
0.0152509
0.219752
0.289781
0.221484
0.0293438
0.102453
0.0191411
0.144519
0.0499022
0.231144
0.0224977
0.142933
0.00995002
0.143362
0.151611
0.0419917
0.0319995
0.32239
0.126236
0.0153819
0.182318
0.31116
0.18117
0.149565
0.0388031
0.0373098
0.191042
0.0125235
0.0355546
0.049273
0.439175
0.139761
0.154912
0.0206127
0.0471457
0.224438
0.198601
0.0959216
0.00525324
0.0630147
0.270365
0.128754
0.295338
0.109291
0.116012
0.11154
0.254211
0.139005
0.111333
0.13367
0.0162517
0.184879
0.0859461
0.0892759
0.0127675
0.00658863
0.125556
0.0551769
0.0299998
0.253379
0.00547284
0.234931
0.0173193
0.0490195
0.133223
0.005988
0.0959881
0.0238175
0.172653
0.0533359
0.284771
0.00912519
0.00361812
0.21484
0.316911
0.135565
0.162074
0.385015
0.0727407
0.13047
0.294508
0.00212537
0.197356
0.190508
0.0437532
0.0460274
0.260051
0.0192812
0.0202835
0.237364
0.0314197
0.0561131
0.0556183
0.049198
0.140851
0.00441507
0.0322039
0.112107
0.0780268
0.0916691
0.150277
0.173965
0.0111807
0.0612503
0.289433
0.280978
0.0372607
0.000701631
0.0477275
0.0124746
0.193731
0.172475
0.155423
0.00382923
0.288176
0.0243063
0.0397018
0.24891
0.0190733
0.103946
0.0149233
0.00579163
0.0281438
0.00216642
0.11802
0.258787
0.0242399
0.15963
0.241407
0.0167498
0.0752754
0.124954
0.122066
0.234157
0.0848239
0.0162848
0.153465
0.287108
0.183852
0.0517787
0.0331686
0.0324195
0.28789
0.234356
0.0360168
0.313111
0.217364
0.0392426
0.00942437
0.0732828
0.0977029
0.0599467
0.0182362
0.225015
0.3293
0.316514
0.005015
0.210489
0.220159
0.00613798
0.334808
0.238719
0.157112
0.0373368
0.15972
0.00755133
0.107611
0.30073
0.194531
0.00843614
0.22
0.0471892
0.084045
0.160004
0.102192
0.00977974
0.0149614
0.0308637
0.63312
0.107332
0.00627553
0.206875
0.0517088
0.0129642
0.257126
0.150152
0.00795672
0.0624165
0.0629004
0.0175978
0.25557
0.373614
0.366619
0.15622
0.303207
0.380023
0.0349621
0.0889456
0.27781
0.0267978
0.0445445
0.0967354
0.0195603
0.238503
0.166012
0.00898243
0.115075
0.0864508
0.0996008
0.176109
0.0563111
0.119037
0.00690959
0.0483237
0.0524563
0.0222477
0.0893663
0.00323716
0.236756
0.0620408
0.256093
0.0680479
0.14388
0.0354837
0.220943
0.0421444
0.0144255
0.211023
0.0495431
0.0667681
0.0267336
0.0108662
0.107156
0.0266603
0.60707
0.0142209
0.00193495
0.142252
0.256234
0.180921
0.00451168
0.0604176
0.266679
0.000506321
0.00744257
0.0725371
0.0219448
0.0623457
0.13663
0.0615891
0.0371118
0.200655
0.00104234
0.188095
0.186081
0.242417
0.0263834
0.181476
0.0145877
0.0453437
0.0975633
0.155224
0.0500857
0.284757
0.350132
0.0497772
0.254666
0.27033
0.0599984
0.211839
0.0436287
0.006466
0.0350013
0.0150561
0.236663
0.0528666
0.22682
0.0369956
0.0193929
0.0272954
0.271852
0.238178
0.0137844
0.114493
0.378264
0.779643
0.0597523
0.0359302
0.109852
0.0874835
0.00602504
0.231605
0.234135
0.053473
0.0436403
0.409303
0.485448
0.316183
0.0589672
0.360766
0.0081717
0.0192193
0.0913455
0.100253
0.0910804
0.0549582
0.04433
0.10308
0.0772275
0.0464017
0.0971673
0.00922589
0.0409881
0.156335
0.0010759
0.147998
0.0551657
0.117115
0.00288957
0.282348
0.123561
0.393971
0.110684
0.191245
0.348758
0.175989
0.0385107
0.335166
0.200066
0.0199369
0.0276759
0.0126646
0.317307
0.000991529
0.313297
0.0254348
0.0763831
0.0142252
0.101264
0.00244224
0.0428978
0.00137326
0.247438
0.056786
0.0243046
0.303172
0.0194277
0.262373
0.0167328
0.000986735
0.148276
0.0519797
0.374358
0.0208122
0.046633
0.127634
0.192005
0.0863957
0.024762
0.0672343
0.100513
0.0080346
0.00164427
0.123445
0.3577
0.00372998
0.0566288
0.0466734
0.0512042
0.0768932
0.281275
0.0851485
0.243195
0.0206779
0.187142
0.204328
0.0167238
0.0517461
0.00801315
0.158477
0.382951
0.151478
0.00685954
0.0940176
0.0907264
0.332205
0.0621519
0.0134329
0.0819043
0.212257
0.0112204
0.184333
0.0281246
0.586892
0.011363
0.0768264
0.420242
0.00803053
0.0205406
0.0390127
0.185279
0.0804328
0.0151438
0.175846
0.00754404
0.266498
0.0959959
0.14054
0.144053
0.0268491
0.01768
0.131519
0.0222491
0.0183411
0.0373371
0.0437497
0.0076527
0.0071024
0.041185
0.227663
0.23917
0.00510212
0.0859837
0.223088
0.0281042
0.0772192
0.172556
0.0170041
0.0783975
0.0221948
0.0129448
0.136872
0.0684674
0.0137262
0.207911
0.235472
0.0107158
0.00537128
0.257176
0.0141271
0.0778513
0.104455
0.0470072
0.18951
0.658843
0.00440009
0.14721
0.00121675
0.176925
0.110361
0.0179523
0.336624
0.313682
0.327967
0.226274
0.0142173
0.572588
0.0443882
0.261882
0.0267725