/*--------------------------------*- C++ -*----------------------------------*\
  =========                 |
  \\      /  F ield         | OpenFOAM: The Open Source CFD Toolbox
   \\    /   O peration     | Website:  https://openfoam.org
    \\  /    A nd           | Version:  8
     \\/     M anipulation  |
\*---------------------------------------------------------------------------*/
FoamFile
{
    version     2.0;
    format      ascii;
    class       volScalarField;
    location    "0.750";
    object      yPlus;
}
// * * * * * * * * * * * * * * * * * * * * * * * * * * * * * * * * * * * * * //

dimensions      [0 0 0 0 0 0 0];

internalField   uniform 0;

boundaryField
{
    INLET
    {
        type            calculated;
        value           uniform 0;
    }
    OUTLET
    {
        type            calculated;
        value           uniform 0;
    }
    TOP
    {
        type            calculated;
        value           nonuniform List<scalar> 
110
(
5.99687
1.87064
2.08929
2.36972
3.81208
3.95009
4.01683
4.00422
3.95057
3.00695
2.19822
2.25651
5.12419
4.40464
3.8167
3.39724
3.18452
3.19206
3.35811
3.60231
3.86108
4.08351
4.23922
4.31529
4.31074
4.22553
4.06461
3.83683
3.54915
3.22015
2.88637
2.62569
2.53562
2.64781
2.92374
3.27948
3.64367
3.96458
4.21809
4.39847
4.509
4.55416
4.53162
4.4314
4.25011
3.98754
3.63224
3.18716
2.70733
2.3293
2.19244
2.36319
2.74297
3.2081
3.64988
4.00534
4.25105
4.39418
4.45148
4.43441
4.33639
4.1465
2.15849
3.84913
3.43109
2.92387
2.87586
2.22552
1.55837
2.8771
1.11538
1.09089
3.03709
1.70615
2.49302
3.23236
3.84288
4.27969
4.53608
4.6297
3.21448
4.6042
4.50573
3.42377
4.35127
3.62831
4.11924
3.78589
3.35027
2.84726
2.15831
3.47148
2.51432
4.03811
2.9993
3.83817
3.87729
4.04379
4.03194
3.91346
3.78614
4.08705
3.0113
3.80996
3.6278
3.34613
3.72034
2.58421
3.57879
2.46132
)
;
    }
    BOTTOM
    {
        type            calculated;
        value           nonuniform List<scalar> 
110
(
2.07402
3.71888
4.03228
4.29999
4.51709
4.65116
4.67466
4.72601
1.96039
2.73956
3.56165
1.47636
5.90736
5.56249
5.19509
4.92443
4.71462
4.51565
4.27453
3.95393
3.52897
2.97763
2.34284
1.72766
1.3356
1.4331
1.97615
2.63363
3.24726
3.74935
4.12569
4.38591
4.54779
4.62674
4.62771
4.54216
4.3581
4.06685
3.66461
3.13692
2.52917
1.96051
1.60024
1.65373
2.07271
2.62365
3.15823
3.59865
3.91936
4.12208
4.22132
4.23406
4.17021
4.03183
3.81966
3.53458
3.19447
2.82379
2.49656
2.3349
2.39709
2.65802
3.54082
2.46647
3.03189
1.77575
3.42872
2.38233
3.78054
4.0506
4.22849
4.31696
4.32286
4.25919
4.13998
3.22029
3.97774
3.77082
3.51788
3.31069
3.22801
2.92902
3.57369
2.68729
2.60515
2.72348
3.00972
3.36582
3.95319
4.26056
4.44947
4.59684
4.43177
5.25972
5.08186
3.37448
3.84644
5.81665
4.18946
1.59807
5.28952
1.93971
2.84621
1.02814
4.51282
4.96551
1.9889
0.688044
1.96125
4.09878
)
;
    }
    CYLINDER
    {
        type            calculated;
        value           nonuniform List<scalar> 
594
(
0.442212
0.601549
0.502042
0.4308
0.429917
0.440523
0.412793
0.518934
0.598466
0.465898
0.675109
0.608714
0.487742
0.517337
0.555437
0.544094
0.67992
0.707342
0.414864
0.404845
0.516559
0.483174
0.717662
0.209563
0.21116
0.294885
0.182845
0.21246
0.247157
0.411695
0.595443
0.152265
0.160871
0.176995
0.168695
0.127054
0.178423
0.192877
0.59286
0.630102
0.579285
0.192623
0.0865069
0.612029
0.222037
0.573013
0.58815
0.15112
0.21482
0.176388
0.704282
0.485489
0.695136
0.242064
0.218559
0.94878
0.613931
0.646541
0.189552
0.170932
0.213264
1.19558
0.51731
0.0883662
0.586393
1.04356
0.431562
0.511284
0.574428
0.584983
0.584822
0.427922
0.741338
0.276191
1.07833
0.973085
0.14467
0.123893
0.738484
0.542692
0.0664268
0.0406647
0.357051
0.698497
0.705106
0.238179
0.484264
0.0777349
0.346227
0.283464
0.66371
0.236386
0.714065
0.283265
0.263924
0.530213
0.95159
0.0916058
0.148375
0.0863871
0.514257
0.0767108
0.338211
0.123906
0.464471
0.360916
0.0303237
0.525253
0.525145
0.442511
0.103698
0.468419
0.389824
0.200158
0.498625
0.35908
0.16089
0.16646
0.289167
0.258951
0.592669
0.286872
0.335338
0.185153
0.599464
0.311163
0.636794
0.261278
0.462516
0.289205
0.194121
0.706396
0.161087
0.0455877
0.288601
0.169238
0.572314
0.100284
0.603857
0.0889044
0.192906
0.509179
0.301063
0.28612
0.411397
0.0965032
0.922623
0.681548
0.185439
0.766004
0.148817
0.176694
0.0920225
0.0415859
0.332423
0.0824671
0.802483
0.26651
0.427398
0.713308
0.222231
0.156206
0.438462
0.611613
0.211654
0.208627
0.512778
0.117038
0.373296
0.0551889
0.251003
0.400434
0.593808
0.494008
0.606012
0.591975
0.559838
0.539299
0.552372
0.55371
0.404877
0.568449
0.514879
0.428
0.620558
0.679762
0.695686
0.615897
0.524535
0.674005
0.523347
0.533301
0.625486
0.710543
0.524703
0.686314
0.502735
0.658352
0.513647
0.431767
0.631444
0.510366
0.441668
1.03465
0.717891
0.695391
0.766493
0.53827
0.635679
0.451698
0.498516
0.469294
0.421175
0.600554
0.704442
0.230212
0.529156
0.558816
0.542832
0.30025
0.238308
0.635032
0.61698
0.446447
0.696015
0.643416
0.404555
0.14871
0.157921
0.0574816
0.578465
0.590981
0.181995
0.177652
0.585381
0.451724
0.154143
0.412913
0.423645
0.14178
0.412431
0.601779
0.546055
0.151656
0.723047
0.139088
0.573862
0.174414
0.574155
0.67742
0.966009
0.222918
0.142657
0.484578
0.607379
0.138745
0.135991
0.63151
1.06519
0.130169
1.2279
0.559922
0.145023
0.246288
0.139116
0.494394
0.454039
0.144772
0.716818
0.828995
0.0332567
0.146752
0.601406
0.151106
0.513169
0.579126
0.869875
0.670842
0.145858
0.72769
0.591475
0.693092
0.181138
0.743646
0.619616
0.558554
0.29683
0.791832
0.540752
0.173857
0.162622
0.752476
0.723853
0.17948
0.539153
0.951551
0.440131
0.241164
0.024257
0.309192
0.607456
0.212826
0.235631
0.0397241
0.406823
0.516053
0.295626
0.808056
0.519494
0.560004
0.18837
1.29132
0.817783
0.531681
0.609786
0.161009
0.600712
0.048442
0.0377261
0.234735
0.380264
0.10101
0.269756
0.351321
0.0619196
0.300856
0.0397207
0.504785
1.03202
0.229529
0.0641262
0.542541
0.65676
0.536563
0.183366
0.54509
0.527493
0.191909
0.76635
0.323666
0.184676
0.522744
0.51544
0.265225
0.489963
0.51456
0.988543
0.130501
0.513521
0.230154
0.0590645
0.597188
0.558057
0.209069
0.686512
0.687374
0.538785
0.175822
0.475135
0.511193
0.063149
0.360728
0.419756
0.121023
0.343064
0.869741
0.499588
0.162482
0.045964
0.676105
0.665739
0.510254
0.741703
0.406164
0.360358
0.149073
0.386998
0.502925
0.129372
0.0271966
0.575989
0.0881857
0.553662
0.373652
0.55517
0.265214
0.912482
0.067825
0.212113
0.38203
0.072534
0.537348
0.0701133
0.50082
0.163166
0.0919918
0.573397
0.353857
0.0996418
0.0386505
0.0898994
0.474343
0.584538
0.226854
0.468065
0.541227
0.116396
0.3017
0.141635
0.429374
0.0678402
0.106526
0.407066
0.31436
0.376926
0.535839
0.102834
0.484378
0.522959
0.399577
0.0967815
0.538186
0.528417
0.0846362
0.418792
0.126358
0.213827
0.375561
0.521958
0.144584
0.592675
0.185417
0.0840205
0.366243
0.104202
0.556416
0.0465798
0.407766
0.211958
0.140061
0.101497
0.427873
0.422478
0.473262
0.0565601
0.405809
0.488871
0.308424
0.107874
0.361555
0.388838
0.355418
0.103693
0.414194
0.181902
0.179121
0.113385
0.10199
0.350245
0.37529
0.18962
0.38594
0.113843
0.108718
0.285582
0.579698
0.209437
0.133779
0.46542
0.379841
0.294888
0.330853
0.291747
0.28039
0.237561
0.407666
0.378991
0.612474
0.365367
0.730312
0.449932
0.339539
0.403705
0.212663
0.616255
0.271261
0.259386
0.409322
0.428204
0.691445
0.432151
0.186867
0.403449
0.43465
0.323733
0.502349
0.246073
0.213361
0.325227
0.364108
0.633326
0.395801
0.192793
0.168526
0.417861
0.538423
0.164971
0.157706
0.235845
0.122057
0.289697
0.534449
0.232744
0.200637
0.212516
0.517543
0.18373
0.15179
0.432813
0.604278
0.0368238
0.073113
0.479974
0.520873
0.296057
0.115166
0.191439
0.234108
0.183938
0.534777
0.1934
0.127479
0.228677
0.262959
0.928794
0.428062
0.229821
0.664735
0.58718
0.803619
0.42182
0.405291
0.153011
0.574963
0.184461
0.215213
0.150066
0.339078
0.121371
0.143721
0.450861
0.825189
0.31801
0.425531
0.140465
0.165925
0.161489
0.263917
0.443537
0.42606
0.122115
0.735068
0.636674
0.135318
0.227364
0.154053
0.204981
0.23962
0.194399
0.503059
0.150638
0.201183
0.171064
0.0663156
0.0680768
0.0681101
0.467413
0.198758
0.369557
0.442218
0.211127
0.126101
0.389808
0.383328
0.108812
0.433021
0.423953
0.164569
0.132836
0.442775
0.211021
0.175535
0.469952
0.257962
)
;
    }
    JET1
    {
        type            calculated;
        value           nonuniform List<scalar> 
17
(
0.323896
0.416822
0.292455
0.368088
0.23928
0.418779
0.445689
0.438789
0.395459
0.487317
0.301678
0.341672
0.371758
0.314916
0.423747
0.431564
0.322303
)
;
    }
    JET2
    {
        type            calculated;
        value           nonuniform List<scalar> 
17
(
0.0984946
0.0544522
0.117301
0.124807
0.0794903
0.0884919
0.103203
0.0624616
0.0952798
0.0421285
0.0683891
0.0846511
0.0987441
0.121647
0.0313614
0.125208
0.119362
)
;
    }
    frontAndBackPlanes
    {
        type            empty;
    }
}


// ************************************************************************* //
